<?xml version="1.0" encoding="UTF-8"?>

<!-- generated on Wed May  8 12:01:28 2019 by Eclipse SUMO Version 1.2.0
<configuration xmlns:xsi="http://www.w3.org/2001/XMLSchema-instance" xsi:noNamespaceSchemaLocation="http://sumo.dlr.de/xsd/sumoConfiguration.xsd">

    <input>
        <net-file value="cross_no_RL.net.xml"/>
        <route-files value="cross.rou.xml"/>
    </input>

    <output>
        <tripinfo-output value="tripinfo.xml"/>
    </output>

    <time>
        <begin value="0"/>
    </time>

    <report>
        <verbose value="true"/>
        <no-step-log value="true"/>
    </report>

    <traci_server>
        <remote-port value="55362"/>
    </traci_server>

</configuration>
-->

<tripinfos xmlns:xsi="http://www.w3.org/2001/XMLSchema-instance" xsi:noNamespaceSchemaLocation="http://sumo.dlr.de/xsd/tripinfo_file.xsd">
    <tripinfo id="left_0" depart="4.00" departLane="52o_0" departPos="5.10" departSpeed="0.00" departDelay="0.00" arrival="92.00" arrivalLane="51i_0" arrivalPos="10.00" arrivalSpeed="12.22" duration="88.00" routeLength="1015.10" waitingTime="0.00" waitingCount="0" stopTime="0.00" timeLoss="14.42" rerouteNo="0" devices="tripinfo_left_0" vType="car" speedFactor="1.06" vaporized=""/>
    <tripinfo id="right_2" depart="11.00" departLane="51o_0" departPos="5.10" departSpeed="0.00" departDelay="0.00" arrival="102.00" arrivalLane="52i_0" arrivalPos="10.00" arrivalSpeed="11.64" duration="91.00" routeLength="1015.10" waitingTime="0.00" waitingCount="0" stopTime="0.00" timeLoss="14.94" rerouteNo="0" devices="tripinfo_right_2" vType="car" speedFactor="1.01" vaporized=""/>
    <tripinfo id="left_1" depart="9.00" departLane="52o_0" departPos="5.10" departSpeed="0.00" departDelay="4.00" arrival="103.00" arrivalLane="51i_0" arrivalPos="10.00" arrivalSpeed="10.71" duration="94.00" routeLength="1015.10" waitingTime="0.00" waitingCount="0" stopTime="0.00" timeLoss="14.72" rerouteNo="0" devices="tripinfo_left_1" vType="car" speedFactor="0.94" vaporized=""/>
    <tripinfo id="right_3" depart="16.00" departLane="51o_0" departPos="5.10" departSpeed="0.00" departDelay="4.00" arrival="104.00" arrivalLane="52i_0" arrivalPos="10.00" arrivalSpeed="12.40" duration="88.00" routeLength="1015.10" waitingTime="0.00" waitingCount="0" stopTime="0.00" timeLoss="14.88" rerouteNo="0" devices="tripinfo_right_3" vType="car" speedFactor="1.08" vaporized=""/>
    <tripinfo id="left_4" depart="14.00" departLane="52o_0" departPos="5.10" departSpeed="0.00" departDelay="2.00" arrival="104.00" arrivalLane="51i_0" arrivalPos="10.00" arrivalSpeed="10.82" duration="90.00" routeLength="1015.10" waitingTime="0.00" waitingCount="0" stopTime="0.00" timeLoss="15.22" rerouteNo="0" devices="tripinfo_left_4" vType="car" speedFactor="1.03" vaporized=""/>
    <tripinfo id="left_6" depart="19.00" departLane="52o_0" departPos="5.10" departSpeed="0.00" departDelay="0.00" arrival="108.00" arrivalLane="51i_0" arrivalPos="10.00" arrivalSpeed="11.93" duration="89.00" routeLength="1015.10" waitingTime="0.00" waitingCount="0" stopTime="0.00" timeLoss="14.76" rerouteNo="0" devices="tripinfo_left_6" vType="car" speedFactor="1.05" vaporized=""/>
    <tripinfo id="right_5" depart="21.00" departLane="51o_0" departPos="5.10" departSpeed="0.00" departDelay="2.00" arrival="122.00" arrivalLane="52i_0" arrivalPos="10.00" arrivalSpeed="9.54" duration="101.00" routeLength="1015.10" waitingTime="0.00" waitingCount="0" stopTime="0.00" timeLoss="14.19" rerouteNo="0" devices="tripinfo_right_5" vType="car" speedFactor="0.83" vaporized=""/>
    <tripinfo id="left_7" depart="24.00" departLane="52o_0" departPos="5.10" departSpeed="0.00" departDelay="0.00" arrival="122.00" arrivalLane="51i_0" arrivalPos="10.00" arrivalSpeed="10.26" duration="98.00" routeLength="1015.10" waitingTime="0.00" waitingCount="0" stopTime="0.00" timeLoss="15.99" rerouteNo="0" devices="tripinfo_left_7" vType="car" speedFactor="0.89" vaporized=""/>
    <tripinfo id="left_10" depart="30.00" departLane="52o_0" departPos="5.10" departSpeed="0.00" departDelay="0.00" arrival="124.00" arrivalLane="51i_0" arrivalPos="10.00" arrivalSpeed="10.84" duration="94.00" routeLength="1015.10" waitingTime="0.00" waitingCount="0" stopTime="0.00" timeLoss="21.31" rerouteNo="0" devices="tripinfo_left_10" vType="car" speedFactor="1.09" vaporized=""/>
    <tripinfo id="left_11" depart="35.00" departLane="52o_0" departPos="5.10" departSpeed="0.00" departDelay="0.00" arrival="126.00" arrivalLane="51i_0" arrivalPos="10.00" arrivalSpeed="11.78" duration="91.00" routeLength="1015.10" waitingTime="0.00" waitingCount="0" stopTime="0.00" timeLoss="15.68" rerouteNo="0" devices="tripinfo_left_11" vType="car" speedFactor="1.03" vaporized=""/>
    <tripinfo id="right_9" depart="29.00" departLane="51o_0" departPos="5.10" departSpeed="0.00" departDelay="0.00" arrival="129.00" arrivalLane="52i_0" arrivalPos="10.00" arrivalSpeed="9.93" duration="100.00" routeLength="1015.10" waitingTime="0.00" waitingCount="0" stopTime="0.00" timeLoss="16.61" rerouteNo="0" devices="tripinfo_right_9" vType="car" speedFactor="0.86" vaporized=""/>
    <tripinfo id="right_12" depart="38.00" departLane="51o_0" departPos="5.10" departSpeed="0.00" departDelay="0.00" arrival="131.00" arrivalLane="52i_0" arrivalPos="10.00" arrivalSpeed="10.35" duration="93.00" routeLength="1015.10" waitingTime="0.00" waitingCount="0" stopTime="0.00" timeLoss="19.07" rerouteNo="0" devices="tripinfo_right_12" vType="car" speedFactor="1.05" vaporized=""/>
    <tripinfo id="UP_8" depart="27.00" departLane="54o_0" departPos="5.10" departSpeed="0.00" departDelay="0.00" arrival="150.00" arrivalLane="53i_0" arrivalPos="10.00" arrivalSpeed="10.80" duration="123.00" routeLength="1015.10" waitingTime="18.00" waitingCount="1" stopTime="0.00" timeLoss="43.73" rerouteNo="0" devices="tripinfo_UP_8" vType="car" speedFactor="0.94" vaporized=""/>
    <tripinfo id="down_18" depart="68.00" departLane="53o_0" departPos="5.10" departSpeed="0.00" departDelay="0.00" arrival="164.00" arrivalLane="54i_0" arrivalPos="10.00" arrivalSpeed="10.80" duration="96.00" routeLength="1015.10" waitingTime="0.00" waitingCount="0" stopTime="0.00" timeLoss="16.22" rerouteNo="0" devices="tripinfo_down_18" vType="car" speedFactor="0.94" vaporized=""/>
    <tripinfo id="down_19" depart="73.00" departLane="53o_0" departPos="5.10" departSpeed="0.00" departDelay="3.00" arrival="165.00" arrivalLane="54i_0" arrivalPos="10.00" arrivalSpeed="10.98" duration="92.00" routeLength="1015.10" waitingTime="0.00" waitingCount="0" stopTime="0.00" timeLoss="22.29" rerouteNo="0" devices="tripinfo_down_19" vType="car" speedFactor="1.16" vaporized=""/>
    <tripinfo id="down_25" depart="81.00" departLane="53o_0" departPos="5.10" departSpeed="0.00" departDelay="0.00" arrival="179.00" arrivalLane="54i_0" arrivalPos="10.00" arrivalSpeed="10.29" duration="98.00" routeLength="1015.10" waitingTime="0.00" waitingCount="0" stopTime="0.00" timeLoss="15.12" rerouteNo="0" devices="tripinfo_down_25" vType="car" speedFactor="0.87" vaporized=""/>
    <tripinfo id="left_13" depart="50.00" departLane="52o_0" departPos="5.10" departSpeed="0.00" departDelay="0.00" arrival="190.00" arrivalLane="51i_0" arrivalPos="10.00" arrivalSpeed="12.98" duration="140.00" routeLength="1015.10" waitingTime="41.00" waitingCount="1" stopTime="0.00" timeLoss="68.58" rerouteNo="0" devices="tripinfo_left_13" vType="car" speedFactor="1.12" vaporized=""/>
    <tripinfo id="right_14" depart="57.00" departLane="51o_0" departPos="5.10" departSpeed="0.00" departDelay="0.00" arrival="195.00" arrivalLane="52i_0" arrivalPos="10.00" arrivalSpeed="11.22" duration="138.00" routeLength="1015.10" waitingTime="33.00" waitingCount="1" stopTime="0.00" timeLoss="61.11" rerouteNo="0" devices="tripinfo_right_14" vType="car" speedFactor="0.99" vaporized=""/>
    <tripinfo id="left_15" depart="58.00" departLane="52o_0" departPos="5.10" departSpeed="0.00" departDelay="0.00" arrival="199.00" arrivalLane="51i_0" arrivalPos="10.00" arrivalSpeed="10.85" duration="141.00" routeLength="1015.10" waitingTime="33.00" waitingCount="1" stopTime="0.00" timeLoss="61.43" rerouteNo="0" devices="tripinfo_left_15" vType="car" speedFactor="0.93" vaporized=""/>
    <tripinfo id="left_21" depart="73.00" departLane="52o_0" departPos="5.10" departSpeed="0.00" departDelay="0.00" arrival="201.00" arrivalLane="51i_0" arrivalPos="10.00" arrivalSpeed="11.37" duration="128.00" routeLength="1015.10" waitingTime="20.00" waitingCount="1" stopTime="0.00" timeLoss="52.23" rerouteNo="0" devices="tripinfo_left_21" vType="car" speedFactor="1.01" vaporized=""/>
    <tripinfo id="right_16" depart="62.00" departLane="51o_0" departPos="5.10" departSpeed="0.00" departDelay="0.00" arrival="202.00" arrivalLane="52i_0" arrivalPos="10.00" arrivalSpeed="9.86" duration="140.00" routeLength="1015.10" waitingTime="31.00" waitingCount="1" stopTime="0.00" timeLoss="57.26" rerouteNo="0" devices="tripinfo_right_16" vType="car" speedFactor="0.88" vaporized=""/>
    <tripinfo id="left_22" depart="78.00" departLane="52o_0" departPos="5.10" departSpeed="0.00" departDelay="4.00" arrival="203.00" arrivalLane="51i_0" arrivalPos="10.00" arrivalSpeed="10.99" duration="125.00" routeLength="1015.10" waitingTime="19.00" waitingCount="2" stopTime="0.00" timeLoss="47.31" rerouteNo="0" devices="tripinfo_left_22" vType="car" speedFactor="0.98" vaporized=""/>
    <tripinfo id="right_17" depart="68.00" departLane="51o_0" departPos="5.10" departSpeed="0.00" departDelay="0.00" arrival="204.00" arrivalLane="52i_0" arrivalPos="10.00" arrivalSpeed="10.52" duration="136.00" routeLength="1015.10" waitingTime="27.00" waitingCount="1" stopTime="0.00" timeLoss="56.55" rerouteNo="0" devices="tripinfo_right_17" vType="car" speedFactor="0.94" vaporized=""/>
    <tripinfo id="right_20" depart="73.00" departLane="51o_0" departPos="5.10" departSpeed="0.00" departDelay="2.00" arrival="205.00" arrivalLane="52i_0" arrivalPos="10.00" arrivalSpeed="10.61" duration="132.00" routeLength="1015.10" waitingTime="22.00" waitingCount="1" stopTime="0.00" timeLoss="57.00" rerouteNo="0" devices="tripinfo_right_20" vType="car" speedFactor="1.02" vaporized=""/>
    <tripinfo id="left_23" depart="84.00" departLane="52o_0" departPos="5.10" departSpeed="0.00" departDelay="8.00" arrival="207.00" arrivalLane="51i_0" arrivalPos="10.00" arrivalSpeed="10.19" duration="123.00" routeLength="1015.10" waitingTime="14.00" waitingCount="1" stopTime="0.00" timeLoss="41.03" rerouteNo="0" devices="tripinfo_left_23" vType="car" speedFactor="0.89" vaporized=""/>
    <tripinfo id="left_27" depart="93.00" departLane="52o_0" departPos="5.10" departSpeed="0.00" departDelay="0.00" arrival="209.00" arrivalLane="51i_0" arrivalPos="10.00" arrivalSpeed="10.87" duration="116.00" routeLength="1015.10" waitingTime="6.00" waitingCount="1" stopTime="0.00" timeLoss="37.18" rerouteNo="0" devices="tripinfo_left_27" vType="car" speedFactor="0.95" vaporized=""/>
    <tripinfo id="right_24" depart="78.00" departLane="51o_0" departPos="5.10" departSpeed="0.00" departDelay="1.00" arrival="211.00" arrivalLane="52i_0" arrivalPos="10.00" arrivalSpeed="9.48" duration="133.00" routeLength="1015.10" waitingTime="19.00" waitingCount="1" stopTime="0.00" timeLoss="46.40" rerouteNo="0" devices="tripinfo_right_24" vType="car" speedFactor="0.83" vaporized=""/>
    <tripinfo id="left_30" depart="105.00" departLane="52o_0" departPos="5.10" departSpeed="0.00" departDelay="0.00" arrival="211.00" arrivalLane="51i_0" arrivalPos="10.00" arrivalSpeed="11.31" duration="106.00" routeLength="1015.10" waitingTime="0.00" waitingCount="0" stopTime="0.00" timeLoss="36.27" rerouteNo="0" devices="tripinfo_left_30" vType="car" speedFactor="1.18" vaporized=""/>
    <tripinfo id="left_31" depart="110.00" departLane="52o_0" departPos="5.10" departSpeed="0.00" departDelay="1.00" arrival="212.00" arrivalLane="51i_0" arrivalPos="10.00" arrivalSpeed="10.99" duration="102.00" routeLength="1015.10" waitingTime="0.00" waitingCount="0" stopTime="0.00" timeLoss="32.22" rerouteNo="0" devices="tripinfo_left_31" vType="car" speedFactor="1.15" vaporized=""/>
    <tripinfo id="right_26" depart="88.00" departLane="51o_0" departPos="5.10" departSpeed="0.00" departDelay="0.00" arrival="213.00" arrivalLane="52i_0" arrivalPos="10.00" arrivalSpeed="9.82" duration="125.00" routeLength="1015.10" waitingTime="11.00" waitingCount="1" stopTime="0.00" timeLoss="44.80" rerouteNo="0" devices="tripinfo_right_26" vType="car" speedFactor="0.92" vaporized=""/>
    <tripinfo id="left_32" depart="119.00" departLane="52o_0" departPos="5.10" departSpeed="0.00" departDelay="0.00" arrival="214.00" arrivalLane="51i_0" arrivalPos="10.00" arrivalSpeed="11.68" duration="95.00" routeLength="1015.10" waitingTime="0.00" waitingCount="0" stopTime="0.00" timeLoss="19.15" rerouteNo="0" devices="tripinfo_left_32" vType="car" speedFactor="1.01" vaporized=""/>
    <tripinfo id="right_28" depart="96.00" departLane="51o_0" departPos="5.10" departSpeed="0.00" departDelay="0.00" arrival="215.00" arrivalLane="52i_0" arrivalPos="10.00" arrivalSpeed="10.99" duration="119.00" routeLength="1015.10" waitingTime="6.00" waitingCount="1" stopTime="0.00" timeLoss="47.91" rerouteNo="0" devices="tripinfo_right_28" vType="car" speedFactor="1.13" vaporized=""/>
    <tripinfo id="right_29" depart="104.00" departLane="51o_0" departPos="5.10" departSpeed="0.00" departDelay="0.00" arrival="217.00" arrivalLane="52i_0" arrivalPos="10.00" arrivalSpeed="10.77" duration="113.00" routeLength="1015.10" waitingTime="0.00" waitingCount="0" stopTime="0.00" timeLoss="33.09" rerouteNo="0" devices="tripinfo_right_29" vType="car" speedFactor="0.93" vaporized=""/>
    <tripinfo id="left_34" depart="125.00" departLane="52o_0" departPos="5.10" departSpeed="0.00" departDelay="0.00" arrival="217.00" arrivalLane="51i_0" arrivalPos="10.00" arrivalSpeed="11.48" duration="92.00" routeLength="1015.10" waitingTime="0.00" waitingCount="0" stopTime="0.00" timeLoss="15.62" rerouteNo="0" devices="tripinfo_left_34" vType="car" speedFactor="0.99" vaporized=""/>
    <tripinfo id="right_37" depart="132.00" departLane="51o_0" departPos="5.10" departSpeed="0.00" departDelay="0.00" arrival="218.00" arrivalLane="52i_0" arrivalPos="10.00" arrivalSpeed="10.80" duration="86.00" routeLength="1015.10" waitingTime="0.00" waitingCount="0" stopTime="0.00" timeLoss="16.96" rerouteNo="0" devices="tripinfo_right_37" vType="car" speedFactor="1.18" vaporized=""/>
    <tripinfo id="left_35" depart="131.00" departLane="52o_0" departPos="5.10" departSpeed="0.00" departDelay="2.00" arrival="222.00" arrivalLane="51i_0" arrivalPos="10.00" arrivalSpeed="11.47" duration="91.00" routeLength="1015.10" waitingTime="0.00" waitingCount="0" stopTime="0.00" timeLoss="15.46" rerouteNo="0" devices="tripinfo_left_35" vType="car" speedFactor="1.02" vaporized=""/>
    <tripinfo id="down_33" depart="122.00" departLane="53o_0" departPos="5.10" departSpeed="0.00" departDelay="0.00" arrival="235.00" arrivalLane="54i_0" arrivalPos="10.00" arrivalSpeed="13.11" duration="113.00" routeLength="1015.10" waitingTime="15.00" waitingCount="1" stopTime="0.00" timeLoss="43.17" rerouteNo="0" devices="tripinfo_down_33" vType="car" speedFactor="1.17" vaporized=""/>
    <tripinfo id="UP_42" depart="149.00" departLane="54o_0" departPos="5.10" departSpeed="0.00" departDelay="0.00" arrival="235.00" arrivalLane="53i_0" arrivalPos="10.00" arrivalSpeed="12.10" duration="86.00" routeLength="1015.10" waitingTime="0.00" waitingCount="0" stopTime="0.00" timeLoss="13.75" rerouteNo="0" devices="tripinfo_UP_42" vType="car" speedFactor="1.09" vaporized=""/>
    <tripinfo id="down_36" depart="131.00" departLane="53o_0" departPos="5.10" departSpeed="0.00" departDelay="0.00" arrival="243.00" arrivalLane="54i_0" arrivalPos="10.00" arrivalSpeed="11.25" duration="112.00" routeLength="1015.10" waitingTime="8.00" waitingCount="1" stopTime="0.00" timeLoss="34.46" rerouteNo="0" devices="tripinfo_down_36" vType="car" speedFactor="0.97" vaporized=""/>
    <tripinfo id="UP_46" depart="168.00" departLane="54o_0" departPos="5.10" departSpeed="0.00" departDelay="0.00" arrival="259.00" arrivalLane="53i_0" arrivalPos="10.00" arrivalSpeed="11.56" duration="91.00" routeLength="1015.10" waitingTime="0.00" waitingCount="0" stopTime="0.00" timeLoss="14.81" rerouteNo="0" devices="tripinfo_UP_46" vType="car" speedFactor="1.00" vaporized=""/>
    <tripinfo id="down_47" depart="176.00" departLane="53o_0" departPos="5.10" departSpeed="0.00" departDelay="0.00" arrival="272.00" arrivalLane="54i_0" arrivalPos="10.00" arrivalSpeed="10.08" duration="96.00" routeLength="1015.10" waitingTime="0.00" waitingCount="0" stopTime="0.00" timeLoss="14.22" rerouteNo="0" devices="tripinfo_down_47" vType="car" speedFactor="0.90" vaporized=""/>
    <tripinfo id="left_38" depart="137.00" departLane="52o_0" departPos="5.10" departSpeed="0.00" departDelay="0.00" arrival="282.00" arrivalLane="51i_0" arrivalPos="10.00" arrivalSpeed="12.32" duration="145.00" routeLength="1015.10" waitingTime="48.00" waitingCount="1" stopTime="0.00" timeLoss="73.26" rerouteNo="0" devices="tripinfo_left_38" vType="car" speedFactor="1.10" vaporized=""/>
    <tripinfo id="right_44" depart="158.00" departLane="51o_0" departPos="5.10" departSpeed="0.00" departDelay="0.00" arrival="284.00" arrivalLane="52i_0" arrivalPos="10.00" arrivalSpeed="11.83" duration="126.00" routeLength="1015.10" waitingTime="26.00" waitingCount="1" stopTime="0.00" timeLoss="51.42" rerouteNo="0" devices="tripinfo_right_44" vType="car" speedFactor="1.04" vaporized=""/>
    <tripinfo id="left_39" depart="142.00" departLane="52o_0" departPos="5.10" departSpeed="0.00" departDelay="2.00" arrival="293.00" arrivalLane="51i_0" arrivalPos="10.00" arrivalSpeed="10.28" duration="151.00" routeLength="1015.10" waitingTime="43.00" waitingCount="1" stopTime="0.00" timeLoss="70.37" rerouteNo="0" devices="tripinfo_left_39" vType="car" speedFactor="0.90" vaporized=""/>
    <tripinfo id="left_40" depart="147.00" departLane="52o_0" departPos="5.10" departSpeed="0.00" departDelay="6.00" arrival="295.00" arrivalLane="51i_0" arrivalPos="10.00" arrivalSpeed="10.82" duration="148.00" routeLength="1015.10" waitingTime="37.00" waitingCount="1" stopTime="0.00" timeLoss="73.40" rerouteNo="0" devices="tripinfo_left_40" vType="car" speedFactor="1.03" vaporized=""/>
    <tripinfo id="right_49" depart="187.00" departLane="51o_0" departPos="5.10" departSpeed="0.00" departDelay="0.00" arrival="295.00" arrivalLane="52i_0" arrivalPos="10.00" arrivalSpeed="10.21" duration="108.00" routeLength="1015.10" waitingTime="0.00" waitingCount="0" stopTime="0.00" timeLoss="23.28" rerouteNo="0" devices="tripinfo_right_49" vType="car" speedFactor="0.85" vaporized=""/>
    <tripinfo id="right_51" depart="194.00" departLane="51o_0" departPos="5.10" departSpeed="0.00" departDelay="0.00" arrival="296.00" arrivalLane="52i_0" arrivalPos="10.00" arrivalSpeed="10.08" duration="102.00" routeLength="1015.10" waitingTime="0.00" waitingCount="0" stopTime="0.00" timeLoss="32.77" rerouteNo="0" devices="tripinfo_right_51" vType="car" speedFactor="1.17" vaporized=""/>
    <tripinfo id="left_41" depart="152.00" departLane="52o_0" departPos="5.10" departSpeed="0.00" departDelay="8.00" arrival="297.00" arrivalLane="51i_0" arrivalPos="10.00" arrivalSpeed="10.91" duration="145.00" routeLength="1015.10" waitingTime="34.00" waitingCount="1" stopTime="0.00" timeLoss="66.89" rerouteNo="0" devices="tripinfo_left_41" vType="car" speedFactor="0.96" vaporized=""/>
    <tripinfo id="right_52" depart="203.00" departLane="51o_0" departPos="5.10" departSpeed="0.00" departDelay="4.00" arrival="298.00" arrivalLane="52i_0" arrivalPos="10.00" arrivalSpeed="10.56" duration="95.00" routeLength="1015.10" waitingTime="0.00" waitingCount="0" stopTime="0.00" timeLoss="19.93" rerouteNo="0" devices="tripinfo_right_52" vType="car" speedFactor="1.02" vaporized=""/>
    <tripinfo id="left_43" depart="157.00" departLane="52o_0" departPos="5.10" departSpeed="0.00" departDelay="4.00" arrival="299.00" arrivalLane="51i_0" arrivalPos="10.00" arrivalSpeed="11.62" duration="142.00" routeLength="1015.10" waitingTime="33.00" waitingCount="1" stopTime="0.00" timeLoss="67.30" rerouteNo="0" devices="tripinfo_left_43" vType="car" speedFactor="1.04" vaporized=""/>
    <tripinfo id="left_45" depart="162.00" departLane="52o_0" departPos="5.10" departSpeed="0.00" departDelay="4.00" arrival="300.00" arrivalLane="51i_0" arrivalPos="10.00" arrivalSpeed="11.55" duration="138.00" routeLength="1015.10" waitingTime="30.00" waitingCount="1" stopTime="0.00" timeLoss="65.71" rerouteNo="0" devices="tripinfo_left_45" vType="car" speedFactor="1.09" vaporized=""/>
    <tripinfo id="left_48" depart="186.00" departLane="52o_0" departPos="5.10" departSpeed="0.00" departDelay="0.00" arrival="304.00" arrivalLane="51i_0" arrivalPos="10.00" arrivalSpeed="10.09" duration="118.00" routeLength="1015.10" waitingTime="6.00" waitingCount="1" stopTime="0.00" timeLoss="35.31" rerouteNo="0" devices="tripinfo_left_48" vType="car" speedFactor="0.88" vaporized=""/>
    <tripinfo id="left_54" depart="205.00" departLane="52o_0" departPos="5.10" departSpeed="0.00" departDelay="5.00" arrival="306.00" arrivalLane="51i_0" arrivalPos="10.00" arrivalSpeed="10.78" duration="101.00" routeLength="1015.10" waitingTime="0.00" waitingCount="0" stopTime="0.00" timeLoss="24.70" rerouteNo="0" devices="tripinfo_left_54" vType="car" speedFactor="1.00" vaporized=""/>
    <tripinfo id="left_55" depart="211.00" departLane="52o_0" departPos="5.10" departSpeed="0.00" departDelay="10.00" arrival="307.00" arrivalLane="51i_0" arrivalPos="10.00" arrivalSpeed="10.69" duration="96.00" routeLength="1015.10" waitingTime="0.00" waitingCount="0" stopTime="0.00" timeLoss="19.87" rerouteNo="0" devices="tripinfo_left_55" vType="car" speedFactor="1.00" vaporized=""/>
    <tripinfo id="right_56" depart="212.00" departLane="51o_0" departPos="5.10" departSpeed="0.00" departDelay="10.00" arrival="308.00" arrivalLane="52i_0" arrivalPos="10.00" arrivalSpeed="10.21" duration="96.00" routeLength="1015.10" waitingTime="0.00" waitingCount="0" stopTime="0.00" timeLoss="14.85" rerouteNo="0" devices="tripinfo_right_56" vType="car" speedFactor="0.90" vaporized=""/>
    <tripinfo id="left_60" depart="219.00" departLane="52o_0" departPos="5.10" departSpeed="0.00" departDelay="0.00" arrival="309.00" arrivalLane="51i_0" arrivalPos="10.00" arrivalSpeed="11.34" duration="90.00" routeLength="1015.10" waitingTime="0.00" waitingCount="0" stopTime="0.00" timeLoss="17.37" rerouteNo="0" devices="tripinfo_left_60" vType="car" speedFactor="1.08" vaporized=""/>
    <tripinfo id="right_58" depart="217.00" departLane="51o_0" departPos="5.10" departSpeed="0.00" departDelay="13.00" arrival="310.00" arrivalLane="52i_0" arrivalPos="10.00" arrivalSpeed="11.02" duration="93.00" routeLength="1015.10" waitingTime="0.00" waitingCount="0" stopTime="0.00" timeLoss="17.86" rerouteNo="0" devices="tripinfo_right_58" vType="car" speedFactor="1.02" vaporized=""/>
    <tripinfo id="right_59" depart="223.00" departLane="51o_0" departPos="5.10" departSpeed="0.00" departDelay="5.00" arrival="315.00" arrivalLane="52i_0" arrivalPos="10.00" arrivalSpeed="11.13" duration="92.00" routeLength="1015.10" waitingTime="0.00" waitingCount="0" stopTime="0.00" timeLoss="14.71" rerouteNo="0" devices="tripinfo_right_59" vType="car" speedFactor="0.97" vaporized=""/>
    <tripinfo id="down_53" depart="199.00" departLane="53o_0" departPos="5.10" departSpeed="0.00" departDelay="0.00" arrival="329.00" arrivalLane="54i_0" arrivalPos="10.00" arrivalSpeed="12.44" duration="130.00" routeLength="1015.10" waitingTime="30.00" waitingCount="1" stopTime="0.00" timeLoss="58.04" rerouteNo="0" devices="tripinfo_down_53" vType="car" speedFactor="1.10" vaporized=""/>
    <tripinfo id="UP_50" depart="193.00" departLane="54o_0" departPos="5.10" departSpeed="0.00" departDelay="0.00" arrival="339.00" arrivalLane="53i_0" arrivalPos="10.00" arrivalSpeed="9.92" duration="146.00" routeLength="1015.10" waitingTime="36.00" waitingCount="1" stopTime="0.00" timeLoss="61.77" rerouteNo="0" devices="tripinfo_UP_50" vType="car" speedFactor="0.85" vaporized=""/>
    <tripinfo id="UP_57" depart="202.00" departLane="54o_0" departPos="5.10" departSpeed="0.00" departDelay="0.00" arrival="340.00" arrivalLane="53i_0" arrivalPos="10.00" arrivalSpeed="10.43" duration="138.00" routeLength="1015.10" waitingTime="29.00" waitingCount="1" stopTime="0.00" timeLoss="67.86" rerouteNo="0" devices="tripinfo_UP_57" vType="car" speedFactor="1.14" vaporized=""/>
    <tripinfo id="down_71" depart="272.00" departLane="53o_0" departPos="5.10" departSpeed="0.00" departDelay="0.00" arrival="365.00" arrivalLane="54i_0" arrivalPos="10.00" arrivalSpeed="10.93" duration="93.00" routeLength="1015.10" waitingTime="0.00" waitingCount="0" stopTime="0.00" timeLoss="15.13" rerouteNo="0" devices="tripinfo_down_71" vType="car" speedFactor="0.97" vaporized=""/>
    <tripinfo id="left_61" depart="229.00" departLane="52o_0" departPos="5.10" departSpeed="0.00" departDelay="0.00" arrival="373.00" arrivalLane="51i_0" arrivalPos="10.00" arrivalSpeed="12.69" duration="144.00" routeLength="1015.10" waitingTime="46.00" waitingCount="1" stopTime="0.00" timeLoss="72.72" rerouteNo="0" devices="tripinfo_left_61" vType="car" speedFactor="1.12" vaporized=""/>
    <tripinfo id="right_62" depart="235.00" departLane="51o_0" departPos="5.10" departSpeed="0.00" departDelay="0.00" arrival="377.00" arrivalLane="52i_0" arrivalPos="10.00" arrivalSpeed="11.08" duration="142.00" routeLength="1015.10" waitingTime="40.00" waitingCount="1" stopTime="0.00" timeLoss="66.77" rerouteNo="0" devices="tripinfo_right_62" vType="car" speedFactor="1.02" vaporized=""/>
    <tripinfo id="left_63" depart="235.00" departLane="52o_0" departPos="5.10" departSpeed="0.00" departDelay="0.00" arrival="380.00" arrivalLane="51i_0" arrivalPos="10.00" arrivalSpeed="11.66" duration="145.00" routeLength="1015.10" waitingTime="42.00" waitingCount="1" stopTime="0.00" timeLoss="68.59" rerouteNo="0" devices="tripinfo_left_63" vType="car" speedFactor="0.99" vaporized=""/>
    <tripinfo id="right_64" depart="240.00" departLane="51o_0" departPos="5.10" departSpeed="0.00" departDelay="3.00" arrival="383.00" arrivalLane="52i_0" arrivalPos="10.00" arrivalSpeed="11.05" duration="143.00" routeLength="1015.10" waitingTime="37.00" waitingCount="1" stopTime="0.00" timeLoss="63.70" rerouteNo="0" devices="tripinfo_right_64" vType="car" speedFactor="0.94" vaporized=""/>
    <tripinfo id="left_66" depart="240.00" departLane="52o_0" departPos="5.10" departSpeed="0.00" departDelay="1.00" arrival="386.00" arrivalLane="51i_0" arrivalPos="10.00" arrivalSpeed="10.46" duration="146.00" routeLength="1015.10" waitingTime="37.00" waitingCount="1" stopTime="0.00" timeLoss="65.28" rerouteNo="0" devices="tripinfo_left_66" vType="car" speedFactor="0.91" vaporized=""/>
    <tripinfo id="right_65" depart="245.00" departLane="51o_0" departPos="5.10" departSpeed="0.00" departDelay="6.00" arrival="388.00" arrivalLane="52i_0" arrivalPos="10.00" arrivalSpeed="10.17" duration="143.00" routeLength="1015.10" waitingTime="32.00" waitingCount="1" stopTime="0.00" timeLoss="60.71" rerouteNo="0" devices="tripinfo_right_65" vType="car" speedFactor="0.88" vaporized=""/>
    <tripinfo id="left_69" depart="257.00" departLane="52o_0" departPos="5.10" departSpeed="0.00" departDelay="0.00" arrival="388.00" arrivalLane="51i_0" arrivalPos="10.00" arrivalSpeed="11.29" duration="131.00" routeLength="1015.10" waitingTime="22.00" waitingCount="1" stopTime="0.00" timeLoss="55.63" rerouteNo="0" devices="tripinfo_left_69" vType="car" speedFactor="1.02" vaporized=""/>
    <tripinfo id="right_67" depart="253.00" departLane="51o_0" departPos="5.10" departSpeed="0.00" departDelay="0.00" arrival="390.00" arrivalLane="52i_0" arrivalPos="10.00" arrivalSpeed="10.94" duration="137.00" routeLength="1015.10" waitingTime="26.00" waitingCount="1" stopTime="0.00" timeLoss="56.24" rerouteNo="0" devices="tripinfo_right_67" vType="car" speedFactor="0.91" vaporized=""/>
    <tripinfo id="left_70" depart="268.00" departLane="52o_0" departPos="5.10" departSpeed="0.00" departDelay="0.00" arrival="390.00" arrivalLane="51i_0" arrivalPos="10.00" arrivalSpeed="11.42" duration="122.00" routeLength="1015.10" waitingTime="13.00" waitingCount="1" stopTime="0.00" timeLoss="46.53" rerouteNo="0" devices="tripinfo_left_70" vType="car" speedFactor="1.02" vaporized=""/>
    <tripinfo id="right_68" depart="258.00" departLane="51o_0" departPos="5.10" departSpeed="0.00" departDelay="2.00" arrival="391.00" arrivalLane="52i_0" arrivalPos="10.00" arrivalSpeed="10.86" duration="133.00" routeLength="1015.10" waitingTime="25.00" waitingCount="1" stopTime="0.00" timeLoss="58.81" rerouteNo="0" devices="tripinfo_right_68" vType="car" speedFactor="1.04" vaporized=""/>
    <tripinfo id="left_77" depart="288.00" departLane="52o_0" departPos="5.10" departSpeed="0.00" departDelay="0.00" arrival="391.00" arrivalLane="51i_0" arrivalPos="10.00" arrivalSpeed="11.40" duration="103.00" routeLength="1015.10" waitingTime="0.00" waitingCount="0" stopTime="0.00" timeLoss="26.37" rerouteNo="0" devices="tripinfo_left_77" vType="car" speedFactor="0.98" vaporized=""/>
    <tripinfo id="right_73" depart="276.00" departLane="51o_0" departPos="5.10" departSpeed="0.00" departDelay="0.00" arrival="393.00" arrivalLane="52i_0" arrivalPos="10.00" arrivalSpeed="11.64" duration="117.00" routeLength="1015.10" waitingTime="7.00" waitingCount="1" stopTime="0.00" timeLoss="43.37" rerouteNo="0" devices="tripinfo_right_73" vType="car" speedFactor="1.06" vaporized=""/>