<?xml version="1.0" encoding="UTF-8"?>

<!-- generated on Wed Apr 24 18:43:16 2019 by Eclipse SUMO Version 1.1.0
<configuration xmlns:xsi="http://www.w3.org/2001/XMLSchema-instance" xsi:noNamespaceSchemaLocation="http://sumo.dlr.de/xsd/sumoConfiguration.xsd">

    <input>
        <net-file value="cross_no_RL.net.xml"/>
        <route-files value="cross.rou.xml"/>
    </input>

    <output>
        <tripinfo-output value="tripinfo.xml"/>
    </output>

    <time>
        <begin value="0"/>
    </time>

    <report>
        <verbose value="true"/>
        <no-step-log value="true"/>
    </report>

    <traci_server>
        <remote-port value="59557"/>
    </traci_server>

</configuration>
-->

<tripinfos xmlns:xsi="http://www.w3.org/2001/XMLSchema-instance" xsi:noNamespaceSchemaLocation="http://sumo.dlr.de/xsd/tripinfo_file.xsd">
    <tripinfo id="right_2" depart="3.00" departLane="51o_0" departPos="5.10" departSpeed="0.00" departDelay="0.00" arrival="94.00" arrivalLane="52i_0" arrivalPos="10.00" arrivalSpeed="11.69" duration="91.00" routeLength="1015.10" waitingTime="0.00" waitingCount="0" stopTime="0.00" timeLoss="15.02" rerouteNo="0" devices="tripinfo_right_2" vType="car" speedFactor="1.01" vaporized=""/>
    <tripinfo id="left_0" depart="0.00" departLane="52o_0" departPos="5.10" departSpeed="0.00" departDelay="0.00" arrival="96.00" arrivalLane="51i_0" arrivalPos="10.00" arrivalSpeed="12.45" duration="96.00" routeLength="1015.10" waitingTime="0.00" waitingCount="0" stopTime="0.00" timeLoss="22.37" rerouteNo="0" devices="tripinfo_left_0" vType="car" speedFactor="1.06" vaporized=""/>
    <tripinfo id="left_1" depart="5.00" departLane="52o_0" departPos="5.10" departSpeed="0.00" departDelay="3.00" arrival="103.00" arrivalLane="51i_0" arrivalPos="10.00" arrivalSpeed="10.87" duration="98.00" routeLength="1015.10" waitingTime="0.00" waitingCount="0" stopTime="0.00" timeLoss="18.54" rerouteNo="0" devices="tripinfo_left_1" vType="car" speedFactor="0.94" vaporized=""/>
    <tripinfo id="left_4" depart="10.00" departLane="52o_0" departPos="5.10" departSpeed="0.00" departDelay="0.00" arrival="104.00" arrivalLane="51i_0" arrivalPos="10.00" arrivalSpeed="10.94" duration="94.00" routeLength="1015.10" waitingTime="0.00" waitingCount="0" stopTime="0.00" timeLoss="19.38" rerouteNo="0" devices="tripinfo_left_4" vType="car" speedFactor="1.03" vaporized=""/>
    <tripinfo id="right_5" depart="11.00" departLane="51o_0" departPos="5.10" departSpeed="0.00" departDelay="0.00" arrival="112.00" arrivalLane="52i_0" arrivalPos="10.00" arrivalSpeed="9.48" duration="101.00" routeLength="1015.10" waitingTime="0.00" waitingCount="0" stopTime="0.00" timeLoss="14.90" rerouteNo="0" devices="tripinfo_right_5" vType="car" speedFactor="0.83" vaporized=""/>
    <tripinfo id="right_6" depart="22.00" departLane="51o_0" departPos="5.10" departSpeed="0.00" departDelay="0.00" arrival="114.00" arrivalLane="52i_0" arrivalPos="10.00" arrivalSpeed="10.34" duration="92.00" routeLength="1015.10" waitingTime="0.00" waitingCount="0" stopTime="0.00" timeLoss="17.76" rerouteNo="0" devices="tripinfo_right_6" vType="car" speedFactor="1.05" vaporized=""/>
    <tripinfo id="left_7" depart="22.00" departLane="52o_0" departPos="5.10" departSpeed="0.00" departDelay="0.00" arrival="120.00" arrivalLane="51i_0" arrivalPos="10.00" arrivalSpeed="10.24" duration="98.00" routeLength="1015.10" waitingTime="0.00" waitingCount="0" stopTime="0.00" timeLoss="15.56" rerouteNo="0" devices="tripinfo_left_7" vType="car" speedFactor="0.89" vaporized=""/>
    <tripinfo id="right_8" depart="27.00" departLane="51o_0" departPos="5.10" departSpeed="0.00" departDelay="2.00" arrival="122.00" arrivalLane="52i_0" arrivalPos="10.00" arrivalSpeed="10.66" duration="95.00" routeLength="1015.10" waitingTime="0.00" waitingCount="0" stopTime="0.00" timeLoss="15.67" rerouteNo="0" devices="tripinfo_right_8" vType="car" speedFactor="0.94" vaporized=""/>
    <tripinfo id="left_13" depart="41.00" departLane="52o_0" departPos="5.10" departSpeed="0.00" departDelay="0.00" arrival="128.00" arrivalLane="51i_0" arrivalPos="10.00" arrivalSpeed="12.67" duration="87.00" routeLength="1015.10" waitingTime="0.00" waitingCount="0" stopTime="0.00" timeLoss="15.80" rerouteNo="0" devices="tripinfo_left_13" vType="car" speedFactor="1.12" vaporized=""/>
    <tripinfo id="right_9" depart="32.00" departLane="51o_0" departPos="5.10" departSpeed="0.00" departDelay="1.00" arrival="132.00" arrivalLane="52i_0" arrivalPos="10.00" arrivalSpeed="10.29" duration="100.00" routeLength="1015.10" waitingTime="0.00" waitingCount="0" stopTime="0.00" timeLoss="15.96" rerouteNo="0" devices="tripinfo_right_9" vType="car" speedFactor="0.86" vaporized=""/>
    <tripinfo id="right_11" depart="38.00" departLane="51o_0" departPos="5.10" departSpeed="0.00" departDelay="4.00" arrival="133.00" arrivalLane="52i_0" arrivalPos="10.00" arrivalSpeed="10.30" duration="95.00" routeLength="1015.10" waitingTime="0.00" waitingCount="0" stopTime="0.00" timeLoss="20.29" rerouteNo="0" devices="tripinfo_right_11" vType="car" speedFactor="1.03" vaporized=""/>
    <tripinfo id="down_10" depart="31.00" departLane="53o_0" departPos="5.10" departSpeed="0.00" departDelay="0.00" arrival="144.00" arrivalLane="54i_0" arrivalPos="10.00" arrivalSpeed="11.83" duration="113.00" routeLength="1015.10" waitingTime="14.00" waitingCount="1" stopTime="0.00" timeLoss="40.76" rerouteNo="0" devices="tripinfo_down_10" vType="car" speedFactor="1.09" vaporized=""/>
    <tripinfo id="UP_3" depart="4.00" departLane="54o_0" departPos="5.10" departSpeed="0.00" departDelay="0.00" arrival="144.00" arrivalLane="53i_0" arrivalPos="10.00" arrivalSpeed="12.33" duration="140.00" routeLength="1015.10" waitingTime="41.00" waitingCount="1" stopTime="0.00" timeLoss="67.53" rerouteNo="0" devices="tripinfo_UP_3" vType="car" speedFactor="1.08" vaporized=""/>
    <tripinfo id="down_20" depart="72.00" departLane="53o_0" departPos="5.10" departSpeed="0.00" departDelay="0.00" arrival="162.00" arrivalLane="54i_0" arrivalPos="10.00" arrivalSpeed="11.63" duration="90.00" routeLength="1015.10" waitingTime="0.00" waitingCount="0" stopTime="0.00" timeLoss="14.91" rerouteNo="0" devices="tripinfo_down_20" vType="car" speedFactor="1.02" vaporized=""/>
    <tripinfo id="down_23" depart="85.00" departLane="53o_0" departPos="5.10" departSpeed="0.00" departDelay="0.00" arrival="183.00" arrivalLane="54i_0" arrivalPos="10.00" arrivalSpeed="10.42" duration="98.00" routeLength="1015.10" waitingTime="0.00" waitingCount="0" stopTime="0.00" timeLoss="15.96" rerouteNo="0" devices="tripinfo_down_23" vType="car" speedFactor="0.89" vaporized=""/>
    <tripinfo id="right_12" depart="43.00" departLane="51o_0" departPos="5.10" departSpeed="0.00" departDelay="3.00" arrival="191.00" arrivalLane="52i_0" arrivalPos="10.00" arrivalSpeed="11.68" duration="148.00" routeLength="1015.10" waitingTime="48.00" waitingCount="1" stopTime="0.00" timeLoss="74.00" rerouteNo="0" devices="tripinfo_right_12" vType="car" speedFactor="1.05" vaporized=""/>
    <tripinfo id="right_14" depart="48.00" departLane="51o_0" departPos="5.10" departSpeed="0.00" departDelay="4.00" arrival="195.00" arrivalLane="52i_0" arrivalPos="10.00" arrivalSpeed="11.55" duration="147.00" routeLength="1015.10" waitingTime="43.00" waitingCount="1" stopTime="0.00" timeLoss="70.22" rerouteNo="0" devices="tripinfo_right_14" vType="car" speedFactor="0.99" vaporized=""/>
    <tripinfo id="left_15" depart="49.00" departLane="52o_0" departPos="5.10" departSpeed="0.00" departDelay="0.00" arrival="197.00" arrivalLane="51i_0" arrivalPos="10.00" arrivalSpeed="10.87" duration="148.00" routeLength="1015.10" waitingTime="42.00" waitingCount="1" stopTime="0.00" timeLoss="68.01" rerouteNo="0" devices="tripinfo_left_15" vType="car" speedFactor="0.93" vaporized=""/>
    <tripinfo id="left_19" depart="67.00" departLane="52o_0" departPos="5.10" departSpeed="0.00" departDelay="0.00" arrival="198.00" arrivalLane="51i_0" arrivalPos="10.00" arrivalSpeed="10.89" duration="131.00" routeLength="1015.10" waitingTime="26.00" waitingCount="1" stopTime="0.00" timeLoss="61.41" rerouteNo="0" devices="tripinfo_left_19" vType="car" speedFactor="1.16" vaporized=""/>
    <tripinfo id="left_21" depart="74.00" departLane="52o_0" departPos="5.10" departSpeed="0.00" departDelay="0.00" arrival="200.00" arrivalLane="51i_0" arrivalPos="10.00" arrivalSpeed="11.70" duration="126.00" routeLength="1015.10" waitingTime="20.00" waitingCount="1" stopTime="0.00" timeLoss="50.40" rerouteNo="0" devices="tripinfo_left_21" vType="car" speedFactor="1.01" vaporized=""/>
    <tripinfo id="right_16" depart="56.00" departLane="51o_0" departPos="5.10" departSpeed="0.00" departDelay="0.00" arrival="204.00" arrivalLane="52i_0" arrivalPos="10.00" arrivalSpeed="10.28" duration="148.00" routeLength="1015.10" waitingTime="39.00" waitingCount="1" stopTime="0.00" timeLoss="65.18" rerouteNo="0" devices="tripinfo_right_16" vType="car" speedFactor="0.88" vaporized=""/>
    <tripinfo id="right_17" depart="63.00" departLane="51o_0" departPos="5.10" departSpeed="0.00" departDelay="0.00" arrival="205.00" arrivalLane="52i_0" arrivalPos="10.00" arrivalSpeed="9.85" duration="142.00" routeLength="1015.10" waitingTime="33.00" waitingCount="1" stopTime="0.00" timeLoss="63.39" rerouteNo="0" devices="tripinfo_right_17" vType="car" speedFactor="0.94" vaporized=""/>
    <tripinfo id="right_18" depart="68.00" departLane="51o_0" departPos="5.10" departSpeed="0.00" departDelay="4.00" arrival="207.00" arrivalLane="52i_0" arrivalPos="10.00" arrivalSpeed="10.78" duration="139.00" routeLength="1015.10" waitingTime="29.00" waitingCount="1" stopTime="0.00" timeLoss="59.85" rerouteNo="0" devices="tripinfo_right_18" vType="car" speedFactor="0.94" vaporized=""/>
    <tripinfo id="right_22" depart="81.00" departLane="51o_0" departPos="5.10" departSpeed="0.00" departDelay="0.00" arrival="209.00" arrivalLane="52i_0" arrivalPos="10.00" arrivalSpeed="11.32" duration="128.00" routeLength="1015.10" waitingTime="19.00" waitingCount="1" stopTime="0.00" timeLoss="50.70" rerouteNo="0" devices="tripinfo_right_22" vType="car" speedFactor="0.98" vaporized=""/>
    <tripinfo id="left_29" depart="117.00" departLane="52o_0" departPos="5.10" departSpeed="0.00" departDelay="0.00" arrival="212.00" arrivalLane="51i_0" arrivalPos="10.00" arrivalSpeed="10.98" duration="95.00" routeLength="1015.10" waitingTime="0.00" waitingCount="0" stopTime="0.00" timeLoss="15.29" rerouteNo="0" devices="tripinfo_left_29" vType="car" speedFactor="0.93" vaporized=""/>
    <tripinfo id="left_30" depart="122.00" departLane="52o_0" departPos="5.10" departSpeed="0.00" departDelay="2.00" arrival="214.00" arrivalLane="51i_0" arrivalPos="10.00" arrivalSpeed="11.45" duration="92.00" routeLength="1015.10" waitingTime="0.00" waitingCount="0" stopTime="0.00" timeLoss="22.45" rerouteNo="0" devices="tripinfo_left_30" vType="car" speedFactor="1.18" vaporized=""/>
    <tripinfo id="left_31" depart="127.00" departLane="52o_0" departPos="5.10" departSpeed="0.00" departDelay="4.00" arrival="215.00" arrivalLane="51i_0" arrivalPos="10.00" arrivalSpeed="11.57" duration="88.00" routeLength="1015.10" waitingTime="0.00" waitingCount="0" stopTime="0.00" timeLoss="18.17" rerouteNo="0" devices="tripinfo_left_31" vType="car" speedFactor="1.15" vaporized=""/>
    <tripinfo id="right_24" depart="92.00" departLane="51o_0" departPos="5.10" departSpeed="0.00" departDelay="0.00" arrival="215.00" arrivalLane="52i_0" arrivalPos="10.00" arrivalSpeed="9.54" duration="123.00" routeLength="1015.10" waitingTime="9.00" waitingCount="1" stopTime="0.00" timeLoss="36.12" rerouteNo="0" devices="tripinfo_right_24" vType="car" speedFactor="0.83" vaporized=""/>
    <tripinfo id="right_28" depart="115.00" departLane="51o_0" departPos="5.10" departSpeed="0.00" departDelay="0.00" arrival="217.00" arrivalLane="52i_0" arrivalPos="10.00" arrivalSpeed="9.99" duration="102.00" routeLength="1015.10" waitingTime="0.00" waitingCount="0" stopTime="0.00" timeLoss="30.96" rerouteNo="0" devices="tripinfo_right_28" vType="car" speedFactor="1.13" vaporized=""/>
    <tripinfo id="right_33" depart="128.00" departLane="51o_0" departPos="5.10" departSpeed="0.00" departDelay="2.00" arrival="219.00" arrivalLane="52i_0" arrivalPos="10.00" arrivalSpeed="10.70" duration="91.00" routeLength="1015.10" waitingTime="0.00" waitingCount="0" stopTime="0.00" timeLoss="21.12" rerouteNo="0" devices="tripinfo_right_33" vType="car" speedFactor="1.17" vaporized=""/>
    <tripinfo id="right_34" depart="133.00" departLane="51o_0" departPos="5.10" departSpeed="0.00" departDelay="6.00" arrival="224.00" arrivalLane="52i_0" arrivalPos="10.00" arrivalSpeed="11.61" duration="91.00" routeLength="1015.10" waitingTime="0.00" waitingCount="0" stopTime="0.00" timeLoss="14.69" rerouteNo="0" devices="tripinfo_right_34" vType="car" speedFactor="0.99" vaporized=""/>
    <tripinfo id="left_32" depart="133.00" departLane="52o_0" departPos="5.10" departSpeed="0.00" departDelay="8.00" arrival="225.00" arrivalLane="51i_0" arrivalPos="10.00" arrivalSpeed="11.57" duration="92.00" routeLength="1015.10" waitingTime="0.00" waitingCount="0" stopTime="0.00" timeLoss="16.13" rerouteNo="0" devices="tripinfo_left_32" vType="car" speedFactor="1.01" vaporized=""/>
    <tripinfo id="UP_26" depart="103.00" departLane="54o_0" departPos="5.10" departSpeed="0.00" departDelay="0.00" arrival="243.00" arrivalLane="53i_0" arrivalPos="10.00" arrivalSpeed="10.63" duration="140.00" routeLength="1015.10" waitingTime="33.00" waitingCount="1" stopTime="0.00" timeLoss="60.25" rerouteNo="0" devices="tripinfo_UP_26" vType="car" speedFactor="0.92" vaporized=""/>
    <tripinfo id="down_25" depart="98.00" departLane="53o_0" departPos="5.10" departSpeed="0.00" departDelay="0.00" arrival="245.00" arrivalLane="54i_0" arrivalPos="10.00" arrivalSpeed="10.35" duration="147.00" routeLength="1015.10" waitingTime="40.00" waitingCount="1" stopTime="0.00" timeLoss="64.74" rerouteNo="0" devices="tripinfo_down_25" vType="car" speedFactor="0.87" vaporized=""/>
    <tripinfo id="UP_27" depart="108.00" departLane="54o_0" departPos="5.10" departSpeed="0.00" departDelay="2.00" arrival="245.00" arrivalLane="53i_0" arrivalPos="10.00" arrivalSpeed="10.59" duration="137.00" routeLength="1015.10" waitingTime="31.00" waitingCount="1" stopTime="0.00" timeLoss="58.68" rerouteNo="0" devices="tripinfo_UP_27" vType="car" speedFactor="0.95" vaporized=""/>
    <tripinfo id="down_36" depart="129.00" departLane="53o_0" departPos="5.10" departSpeed="0.00" departDelay="0.00" arrival="247.00" arrivalLane="54i_0" arrivalPos="10.00" arrivalSpeed="10.32" duration="118.00" routeLength="1015.10" waitingTime="10.00" waitingCount="1" stopTime="0.00" timeLoss="40.90" rerouteNo="0" devices="tripinfo_down_36" vType="car" speedFactor="0.97" vaporized=""/>
    <tripinfo id="down_40" depart="149.00" departLane="53o_0" departPos="5.10" departSpeed="0.00" departDelay="0.00" arrival="249.00" arrivalLane="54i_0" arrivalPos="10.00" arrivalSpeed="11.04" duration="100.00" routeLength="1015.10" waitingTime="0.00" waitingCount="0" stopTime="0.00" timeLoss="25.14" rerouteNo="0" devices="tripinfo_down_40" vType="car" speedFactor="1.03" vaporized=""/>
    <tripinfo id="right_37" depart="138.00" departLane="51o_0" departPos="5.10" departSpeed="0.00" departDelay="6.00" arrival="280.00" arrivalLane="52i_0" arrivalPos="10.00" arrivalSpeed="13.56" duration="142.00" routeLength="1015.10" waitingTime="45.00" waitingCount="1" stopTime="0.00" timeLoss="72.90" rerouteNo="0" devices="tripinfo_right_37" vType="car" speedFactor="1.18" vaporized=""/>
    <tripinfo id="left_35" depart="138.00" departLane="52o_0" departPos="5.10" departSpeed="0.00" departDelay="9.00" arrival="284.00" arrivalLane="51i_0" arrivalPos="10.00" arrivalSpeed="11.58" duration="146.00" routeLength="1015.10" waitingTime="45.00" waitingCount="1" stopTime="0.00" timeLoss="71.15" rerouteNo="0" devices="tripinfo_left_35" vType="car" speedFactor="1.02" vaporized=""/>
    <tripinfo id="left_38" depart="143.00" departLane="52o_0" departPos="5.10" departSpeed="0.00" departDelay="6.00" arrival="286.00" arrivalLane="51i_0" arrivalPos="10.00" arrivalSpeed="12.29" duration="143.00" routeLength="1015.10" waitingTime="42.00" waitingCount="1" stopTime="0.00" timeLoss="71.04" rerouteNo="0" devices="tripinfo_left_38" vType="car" speedFactor="1.10" vaporized=""/>
    <tripinfo id="right_41" depart="150.00" departLane="51o_0" departPos="5.10" departSpeed="0.00" departDelay="0.00" arrival="290.00" arrivalLane="52i_0" arrivalPos="10.00" arrivalSpeed="11.14" duration="140.00" routeLength="1015.10" waitingTime="36.00" waitingCount="1" stopTime="0.00" timeLoss="61.41" rerouteNo="0" devices="tripinfo_right_41" vType="car" speedFactor="0.96" vaporized=""/>
    <tripinfo id="right_42" depart="155.00" departLane="51o_0" departPos="5.10" departSpeed="0.00" departDelay="3.00" arrival="291.00" arrivalLane="52i_0" arrivalPos="10.00" arrivalSpeed="10.99" duration="136.00" routeLength="1015.10" waitingTime="31.00" waitingCount="1" stopTime="0.00" timeLoss="63.94" rerouteNo="0" devices="tripinfo_right_42" vType="car" speedFactor="1.09" vaporized=""/>
    <tripinfo id="right_44" depart="164.00" departLane="51o_0" departPos="5.10" departSpeed="0.00" departDelay="0.00" arrival="293.00" arrivalLane="52i_0" arrivalPos="10.00" arrivalSpeed="11.60" duration="129.00" routeLength="1015.10" waitingTime="23.00" waitingCount="1" stopTime="0.00" timeLoss="54.81" rerouteNo="0" devices="tripinfo_right_44" vType="car" speedFactor="1.04" vaporized=""/>
    <tripinfo id="left_39" depart="148.00" departLane="52o_0" departPos="5.10" departSpeed="0.00" departDelay="1.00" arrival="295.00" arrivalLane="51i_0" arrivalPos="10.00" arrivalSpeed="10.34" duration="147.00" routeLength="1015.10" waitingTime="39.00" waitingCount="1" stopTime="0.00" timeLoss="65.86" rerouteNo="0" devices="tripinfo_left_39" vType="car" speedFactor="0.90" vaporized=""/>
    <tripinfo id="right_45" depart="171.00" departLane="51o_0" departPos="5.10" departSpeed="0.00" departDelay="0.00" arrival="295.00" arrivalLane="52i_0" arrivalPos="10.00" arrivalSpeed="12.03" duration="124.00" routeLength="1015.10" waitingTime="18.00" waitingCount="1" stopTime="0.00" timeLoss="51.27" rerouteNo="0" devices="tripinfo_right_45" vType="car" speedFactor="1.09" vaporized=""/>
    <tripinfo id="left_43" depart="159.00" departLane="52o_0" departPos="5.10" departSpeed="0.00" departDelay="0.00" arrival="297.00" arrivalLane="51i_0" arrivalPos="10.00" arrivalSpeed="11.25" duration="138.00" routeLength="1015.10" waitingTime="28.00" waitingCount="1" stopTime="0.00" timeLoss="63.23" rerouteNo="0" devices="tripinfo_left_43" vType="car" speedFactor="1.04" vaporized=""/>
    <tripinfo id="right_46" depart="179.00" departLane="51o_0" departPos="5.10" departSpeed="0.00" departDelay="0.00" arrival="297.00" arrivalLane="52i_0" arrivalPos="10.00" arrivalSpeed="11.33" duration="118.00" routeLength="1015.10" waitingTime="11.00" waitingCount="1" stopTime="0.00" timeLoss="41.45" rerouteNo="0" devices="tripinfo_right_46" vType="car" speedFactor="1.00" vaporized=""/>
    <tripinfo id="left_49" depart="184.00" departLane="52o_0" departPos="5.10" departSpeed="0.00" departDelay="0.00" arrival="302.00" arrivalLane="51i_0" arrivalPos="10.00" arrivalSpeed="9.72" duration="118.00" routeLength="1015.10" waitingTime="5.00" waitingCount="1" stopTime="0.00" timeLoss="33.18" rerouteNo="0" devices="tripinfo_left_49" vType="car" speedFactor="0.85" vaporized=""/>
    <tripinfo id="right_47" depart="184.00" departLane="51o_0" departPos="5.10" departSpeed="0.00" departDelay="4.00" arrival="302.00" arrivalLane="52i_0" arrivalPos="10.00" arrivalSpeed="10.32" duration="118.00" routeLength="1015.10" waitingTime="7.00" waitingCount="1" stopTime="0.00" timeLoss="37.11" rerouteNo="0" devices="tripinfo_right_47" vType="car" speedFactor="0.90" vaporized=""/>
    <tripinfo id="left_50" depart="205.00" departLane="52o_0" departPos="5.10" departSpeed="0.00" departDelay="1.00" arrival="304.00" arrivalLane="51i_0" arrivalPos="10.00" arrivalSpeed="9.74" duration="99.00" routeLength="1015.10" waitingTime="0.00" waitingCount="0" stopTime="0.00" timeLoss="15.09" rerouteNo="0" devices="tripinfo_left_50" vType="car" speedFactor="0.85" vaporized=""/>
    <tripinfo id="right_48" depart="189.00" departLane="51o_0" departPos="5.10" departSpeed="0.00" departDelay="7.00" arrival="305.00" arrivalLane="52i_0" arrivalPos="10.00" arrivalSpeed="10.28" duration="116.00" routeLength="1015.10" waitingTime="4.00" waitingCount="1" stopTime="0.00" timeLoss="33.81" rerouteNo="0" devices="tripinfo_right_48" vType="car" speedFactor="0.88" vaporized=""/>
    <tripinfo id="left_53" depart="219.00" departLane="52o_0" departPos="5.10" departSpeed="0.00" departDelay="1.00" arrival="306.00" arrivalLane="51i_0" arrivalPos="10.00" arrivalSpeed="11.90" duration="87.00" routeLength="1015.10" waitingTime="0.00" waitingCount="0" stopTime="0.00" timeLoss="14.83" rerouteNo="0" devices="tripinfo_left_53" vType="car" speedFactor="1.10" vaporized=""/>
    <tripinfo id="right_51" depart="215.00" departLane="51o_0" departPos="5.10" departSpeed="0.00" departDelay="2.00" arrival="307.00" arrivalLane="52i_0" arrivalPos="10.00" arrivalSpeed="10.89" duration="92.00" routeLength="1015.10" waitingTime="0.00" waitingCount="0" stopTime="0.00" timeLoss="22.52" rerouteNo="0" devices="tripinfo_right_51" vType="car" speedFactor="1.17" vaporized=""/>
    <tripinfo id="right_52" depart="220.00" departLane="51o_0" departPos="5.10" departSpeed="0.00" departDelay="4.00" arrival="310.00" arrivalLane="52i_0" arrivalPos="10.00" arrivalSpeed="11.62" duration="90.00" routeLength="1015.10" waitingTime="0.00" waitingCount="0" stopTime="0.00" timeLoss="14.46" rerouteNo="0" devices="tripinfo_right_52" vType="car" speedFactor="1.02" vaporized=""/>
    <tripinfo id="down_54" depart="220.00" departLane="53o_0" departPos="5.10" departSpeed="0.00" departDelay="0.00" arrival="332.00" arrivalLane="54i_0" arrivalPos="10.00" arrivalSpeed="11.23" duration="112.00" routeLength="1015.10" waitingTime="10.00" waitingCount="1" stopTime="0.00" timeLoss="36.33" rerouteNo="0" devices="tripinfo_down_54" vType="car" speedFactor="1.00" vaporized=""/>
    <tripinfo id="down_61" depart="256.00" departLane="53o_0" departPos="5.10" departSpeed="0.00" departDelay="0.00" arrival="343.00" arrivalLane="54i_0" arrivalPos="10.00" arrivalSpeed="12.89" duration="87.00" routeLength="1015.10" waitingTime="0.00" waitingCount="0" stopTime="0.00" timeLoss="15.61" rerouteNo="0" devices="tripinfo_down_61" vType="car" speedFactor="1.12" vaporized=""/>
    <tripinfo id="down_63" depart="261.00" departLane="53o_0" departPos="5.10" departSpeed="0.00" departDelay="3.00" arrival="353.00" arrivalLane="54i_0" arrivalPos="10.00" arrivalSpeed="11.61" duration="92.00" routeLength="1015.10" waitingTime="0.00" waitingCount="0" stopTime="0.00" timeLoss="15.44" rerouteNo="0" devices="tripinfo_down_63" vType="car" speedFactor="0.99" vaporized=""/>
    <tripinfo id="right_55" depart="227.00" departLane="51o_0" departPos="5.10" departSpeed="0.00" departDelay="0.00" arrival="378.00" arrivalLane="52i_0" arrivalPos="10.00" arrivalSpeed="11.29" duration="151.00" routeLength="1015.10" waitingTime="47.00" waitingCount="1" stopTime="0.00" timeLoss="74.26" rerouteNo="0" devices="tripinfo_right_55" vType="car" speedFactor="1.00" vaporized=""/>
    <tripinfo id="right_57" depart="239.00" departLane="51o_0" departPos="5.10" departSpeed="0.00" departDelay="0.00" arrival="379.00" arrivalLane="52i_0" arrivalPos="10.00" arrivalSpeed="11.51" duration="140.00" routeLength="1015.10" waitingTime="37.00" waitingCount="1" stopTime="0.00" timeLoss="69.69" rerouteNo="0" devices="tripinfo_right_57" vType="car" speedFactor="1.14" vaporized=""/>
    <tripinfo id="left_56" depart="232.00" departLane="52o_0" departPos="5.10" departSpeed="0.00" departDelay="0.00" arrival="381.00" arrivalLane="51i_0" arrivalPos="10.00" arrivalSpeed="10.31" duration="149.00" routeLength="1015.10" waitingTime="43.00" waitingCount="1" stopTime="0.00" timeLoss="68.28" rerouteNo="0" devices="tripinfo_left_56" vType="car" speedFactor="0.90" vaporized=""/>
    <tripinfo id="right_58" depart="245.00" departLane="51o_0" departPos="5.10" departSpeed="0.00" departDelay="0.00" arrival="381.00" arrivalLane="52i_0" arrivalPos="10.00" arrivalSpeed="11.77" duration="136.00" routeLength="1015.10" waitingTime="34.00" waitingCount="1" stopTime="0.00" timeLoss="60.94" rerouteNo="0" devices="tripinfo_right_58" vType="car" speedFactor="1.02" vaporized=""/>
    <tripinfo id="left_60" depart="253.00" departLane="52o_0" departPos="5.10" departSpeed="0.00" departDelay="0.00" arrival="383.00" arrivalLane="51i_0" arrivalPos="10.00" arrivalSpeed="10.94" duration="130.00" routeLength="1015.10" waitingTime="23.00" waitingCount="1" stopTime="0.00" timeLoss="57.56" rerouteNo="0" devices="tripinfo_left_60" vType="car" speedFactor="1.08" vaporized=""/>
    <tripinfo id="left_62" depart="258.00" departLane="52o_0" departPos="5.10" departSpeed="0.00" departDelay="0.00" arrival="385.00" arrivalLane="51i_0" arrivalPos="10.00" arrivalSpeed="11.08" duration="127.00" routeLength="1015.10" waitingTime="20.00" waitingCount="1" stopTime="0.00" timeLoss="51.66" rerouteNo="0" devices="tripinfo_left_62" vType="car" speedFactor="1.02" vaporized=""/>
    <tripinfo id="right_59" depart="250.00" departLane="51o_0" departPos="5.10" departSpeed="0.00" departDelay="0.00" arrival="385.00" arrivalLane="52i_0" arrivalPos="10.00" arrivalSpeed="11.16" duration="135.00" routeLength="1015.10" waitingTime="30.00" waitingCount="1" stopTime="0.00" timeLoss="57.72" rerouteNo="0" devices="tripinfo_right_59" vType="car" speedFactor="0.97" vaporized=""/>
    <tripinfo id="left_64" depart="263.00" departLane="52o_0" departPos="5.10" departSpeed="0.00" departDelay="1.00" arrival="387.00" arrivalLane="51i_0" arrivalPos="10.00" arrivalSpeed="10.80" duration="124.00" routeLength="1015.10" waitingTime="17.00" waitingCount="1" stopTime="0.00" timeLoss="44.70" rerouteNo="0" devices="tripinfo_left_64" vType="car" speedFactor="0.94" vaporized=""/>
    <tripinfo id="right_66" depart="266.00" departLane="51o_0" departPos="5.10" departSpeed="0.00" departDelay="0.00" arrival="390.00" arrivalLane="52i_0" arrivalPos="10.00" arrivalSpeed="10.57" duration="124.00" routeLength="1015.10" waitingTime="16.00" waitingCount="1" stopTime="0.00" timeLoss="43.61" rerouteNo="0" devices="tripinfo_right_66" vType="car" speedFactor="0.91" vaporized=""/>
    <tripinfo id="left_65" depart="268.00" departLane="52o_0" departPos="5.10" departSpeed="0.00" departDelay="3.00" arrival="391.00" arrivalLane="51i_0" arrivalPos="10.00" arrivalSpeed="10.20" duration="123.00" routeLength="1015.10" waitingTime="14.00" waitingCount="1" stopTime="0.00" timeLoss="41.06" rerouteNo="0" devices="tripinfo_left_65" vType="car" speedFactor="0.88" vaporized=""/>
    <tripinfo id="right_72" depart="287.00" departLane="51o_0" departPos="5.10" departSpeed="0.00" departDelay="0.00" arrival="392.00" arrivalLane="52i_0" arrivalPos="10.00" arrivalSpeed="10.73" duration="105.00" routeLength="1015.10" waitingTime="0.00" waitingCount="0" stopTime="0.00" timeLoss="26.17" rerouteNo="0" devices="tripinfo_right_72" vType="car" speedFactor="0.94" vaporized=""/>
    <tripinfo id="left_67" depart="273.00" departLane="52o_0" departPos="5.10" departSpeed="0.00" departDelay="5.00" arrival="393.00" arrivalLane="51i_0" arrivalPos="10.00" arrivalSpeed="10.55" duration="120.00" routeLength="1015.10" waitingTime="10.00" waitingCount="1" stopTime="0.00" timeLoss="39.70" rerouteNo="0" devices="tripinfo_left_67" vType="car" speedFactor="0.91" vaporized=""/>
    <tripinfo id="right_75" depart="292.00" departLane="51o_0" departPos="5.10" departSpeed="0.00" departDelay="0.00" arrival="394.00" arrivalLane="52i_0" arrivalPos="10.00" arrivalSpeed="11.26" duration="102.00" routeLength="1015.10" waitingTime="1.00" waitingCount="1" stopTime="0.00" timeLoss="25.07" rerouteNo="0" devices="tripinfo_right_75" vType="car" speedFactor="0.98" vaporized=""/>
    <tripinfo id="left_68" depart="280.00" departLane="52o_0" departPos="5.10" departSpeed="0.00" departDelay="9.00" arrival="395.00" arrivalLane="51i_0" arrivalPos="10.00" arrivalSpeed="11.04" duration="115.00" routeLength="1015.10" waitingTime="4.00" waitingCount="1" stopTime="0.00" timeLoss="40.42" rerouteNo="0" devices="tripinfo_left_68" vType="car" speedFactor="1.04" vaporized=""/>
    <tripinfo id="right_77" depart="298.00" departLane="51o_0" departPos="5.10" departSpeed="0.00" departDelay="2.00" arrival="396.00" arrivalLane="52i_0" arrivalPos="10.00" arrivalSpeed="11.53" duration="98.00" routeLength="1015.10" waitingTime="0.00" waitingCount="0" stopTime="0.00" timeLoss="20.62" rerouteNo="0" devices="tripinfo_right_77" vType="car" speedFactor="0.98" vaporized=""/>
    <tripinfo id="left_69" depart="285.00" departLane="52o_0" departPos="5.10" departSpeed="0.00" departDelay="12.00" arrival="397.00" arrivalLane="51i_0" arrivalPos="10.00" arrivalSpeed="11.76" duration="112.00" routeLength="1015.10" waitingTime="1.00" waitingCount="1" stopTime="0.00" timeLoss="36.47" rerouteNo="0" devices="tripinfo_left_69" vType="car" speedFactor="1.02" vaporized=""/>
    <tripinfo id="left_70" depart="291.00" departLane="52o_0" departPos="5.10" departSpeed="0.00" departDelay="10.00" arrival="398.00" arrivalLane="51i_0" arrivalPos="10.00" arrivalSpeed="11.50" duration="107.00" routeLength="1015.10" waitingTime="0.00" waitingCount="0" stopTime="0.00" timeLoss="32.23" rerouteNo="0" devices="tripinfo_left_70" vType="car" speedFactor="1.02" vaporized=""/>