<?xml version="1.0" encoding="UTF-8"?>

<!-- generated on Mon May  6 12:19:58 2019 by Eclipse SUMO Version 1.2.0
<configuration xmlns:xsi="http://www.w3.org/2001/XMLSchema-instance" xsi:noNamespaceSchemaLocation="http://sumo.dlr.de/xsd/sumoConfiguration.xsd">

    <input>
        <net-file value="cross_no_RL.net.xml"/>
        <route-files value="cross.rou.xml"/>
    </input>

    <output>
        <tripinfo-output value="tripinfo.xml"/>
    </output>

    <time>
        <begin value="0"/>
    </time>

    <report>
        <verbose value="true"/>
        <no-step-log value="true"/>
    </report>

    <traci_server>
        <remote-port value="54267"/>
    </traci_server>

</configuration>
-->

<tripinfos xmlns:xsi="http://www.w3.org/2001/XMLSchema-instance" xsi:noNamespaceSchemaLocation="http://sumo.dlr.de/xsd/tripinfo_file.xsd">
    <tripinfo id="right_2" depart="3.00" departLane="51o_0" departPos="5.10" departSpeed="0.00" departDelay="0.00" arrival="94.00" arrivalLane="52i_0" arrivalPos="10.00" arrivalSpeed="11.32" duration="91.00" routeLength="1015.10" waitingTime="0.00" waitingCount="0" stopTime="0.00" timeLoss="15.00" rerouteNo="0" devices="tripinfo_right_2" vType="car" speedFactor="1.01" vaporized=""/>
    <tripinfo id="left_0" depart="0.00" departLane="52o_0" departPos="5.10" departSpeed="0.00" departDelay="0.00" arrival="97.00" arrivalLane="51i_0" arrivalPos="10.00" arrivalSpeed="12.32" duration="97.00" routeLength="1015.10" waitingTime="0.00" waitingCount="0" stopTime="0.00" timeLoss="23.10" rerouteNo="0" devices="tripinfo_left_0" vType="car" speedFactor="1.06" vaporized=""/>
    <tripinfo id="left_1" depart="5.00" departLane="52o_0" departPos="5.10" departSpeed="0.00" departDelay="3.00" arrival="103.00" arrivalLane="51i_0" arrivalPos="10.00" arrivalSpeed="10.76" duration="98.00" routeLength="1015.10" waitingTime="0.00" waitingCount="0" stopTime="0.00" timeLoss="19.27" rerouteNo="0" devices="tripinfo_left_1" vType="car" speedFactor="0.94" vaporized=""/>
    <tripinfo id="left_4" depart="10.00" departLane="52o_0" departPos="5.10" departSpeed="0.00" departDelay="0.00" arrival="105.00" arrivalLane="51i_0" arrivalPos="10.00" arrivalSpeed="11.43" duration="95.00" routeLength="1015.10" waitingTime="0.00" waitingCount="0" stopTime="0.00" timeLoss="20.06" rerouteNo="0" devices="tripinfo_left_4" vType="car" speedFactor="1.03" vaporized=""/>
    <tripinfo id="right_5" depart="11.00" departLane="51o_0" departPos="5.10" departSpeed="0.00" departDelay="0.00" arrival="113.00" arrivalLane="52i_0" arrivalPos="10.00" arrivalSpeed="9.99" duration="102.00" routeLength="1015.10" waitingTime="0.00" waitingCount="0" stopTime="0.00" timeLoss="15.58" rerouteNo="0" devices="tripinfo_right_5" vType="car" speedFactor="0.83" vaporized=""/>
    <tripinfo id="right_6" depart="22.00" departLane="51o_0" departPos="5.10" departSpeed="0.00" departDelay="0.00" arrival="114.00" arrivalLane="52i_0" arrivalPos="10.00" arrivalSpeed="10.58" duration="92.00" routeLength="1015.10" waitingTime="0.00" waitingCount="0" stopTime="0.00" timeLoss="18.15" rerouteNo="0" devices="tripinfo_right_6" vType="car" speedFactor="1.05" vaporized=""/>
    <tripinfo id="left_7" depart="22.00" departLane="52o_0" departPos="5.10" departSpeed="0.00" departDelay="0.00" arrival="120.00" arrivalLane="51i_0" arrivalPos="10.00" arrivalSpeed="10.30" duration="98.00" routeLength="1015.10" waitingTime="0.00" waitingCount="0" stopTime="0.00" timeLoss="16.03" rerouteNo="0" devices="tripinfo_left_7" vType="car" speedFactor="0.89" vaporized=""/>
    <tripinfo id="right_8" depart="27.00" departLane="51o_0" departPos="5.10" departSpeed="0.00" departDelay="2.00" arrival="121.00" arrivalLane="52i_0" arrivalPos="10.00" arrivalSpeed="11.15" duration="94.00" routeLength="1015.10" waitingTime="0.00" waitingCount="0" stopTime="0.00" timeLoss="15.08" rerouteNo="0" devices="tripinfo_right_8" vType="car" speedFactor="0.94" vaporized=""/>
    <tripinfo id="left_13" depart="41.00" departLane="52o_0" departPos="5.10" departSpeed="0.00" departDelay="0.00" arrival="127.00" arrivalLane="51i_0" arrivalPos="10.00" arrivalSpeed="12.96" duration="86.00" routeLength="1015.10" waitingTime="0.00" waitingCount="0" stopTime="0.00" timeLoss="14.67" rerouteNo="0" devices="tripinfo_left_13" vType="car" speedFactor="1.12" vaporized=""/>
    <tripinfo id="right_9" depart="32.00" departLane="51o_0" departPos="5.10" departSpeed="0.00" departDelay="1.00" arrival="131.00" arrivalLane="52i_0" arrivalPos="10.00" arrivalSpeed="10.04" duration="99.00" routeLength="1015.10" waitingTime="0.00" waitingCount="0" stopTime="0.00" timeLoss="15.59" rerouteNo="0" devices="tripinfo_right_9" vType="car" speedFactor="0.86" vaporized=""/>
    <tripinfo id="right_11" depart="37.00" departLane="51o_0" departPos="5.10" departSpeed="0.00" departDelay="3.00" arrival="133.00" arrivalLane="52i_0" arrivalPos="10.00" arrivalSpeed="10.62" duration="96.00" routeLength="1015.10" waitingTime="0.00" waitingCount="0" stopTime="0.00" timeLoss="21.08" rerouteNo="0" devices="tripinfo_right_11" vType="car" speedFactor="1.03" vaporized=""/>
    <tripinfo id="right_12" depart="42.00" departLane="51o_0" departPos="5.10" departSpeed="0.00" departDelay="2.00" arrival="135.00" arrivalLane="52i_0" arrivalPos="10.00" arrivalSpeed="11.25" duration="93.00" routeLength="1015.10" waitingTime="0.00" waitingCount="0" stopTime="0.00" timeLoss="18.68" rerouteNo="0" devices="tripinfo_right_12" vType="car" speedFactor="1.05" vaporized=""/>
    <tripinfo id="down_10" depart="31.00" departLane="53o_0" departPos="5.10" departSpeed="0.00" departDelay="0.00" arrival="144.00" arrivalLane="54i_0" arrivalPos="10.00" arrivalSpeed="12.44" duration="113.00" routeLength="1015.10" waitingTime="13.00" waitingCount="1" stopTime="0.00" timeLoss="40.90" rerouteNo="0" devices="tripinfo_down_10" vType="car" speedFactor="1.09" vaporized=""/>
    <tripinfo id="UP_3" depart="4.00" departLane="54o_0" departPos="5.10" departSpeed="0.00" departDelay="0.00" arrival="145.00" arrivalLane="53i_0" arrivalPos="10.00" arrivalSpeed="12.43" duration="141.00" routeLength="1015.10" waitingTime="41.00" waitingCount="1" stopTime="0.00" timeLoss="67.89" rerouteNo="0" devices="tripinfo_UP_3" vType="car" speedFactor="1.08" vaporized=""/>
    <tripinfo id="down_20" depart="72.00" departLane="53o_0" departPos="5.10" departSpeed="0.00" departDelay="0.00" arrival="163.00" arrivalLane="54i_0" arrivalPos="10.00" arrivalSpeed="11.93" duration="91.00" routeLength="1015.10" waitingTime="0.00" waitingCount="0" stopTime="0.00" timeLoss="15.03" rerouteNo="0" devices="tripinfo_down_20" vType="car" speedFactor="1.02" vaporized=""/>
    <tripinfo id="down_23" depart="85.00" departLane="53o_0" departPos="5.10" departSpeed="0.00" departDelay="0.00" arrival="181.00" arrivalLane="54i_0" arrivalPos="10.00" arrivalSpeed="10.13" duration="96.00" routeLength="1015.10" waitingTime="0.00" waitingCount="0" stopTime="0.00" timeLoss="14.24" rerouteNo="0" devices="tripinfo_down_23" vType="car" speedFactor="0.89" vaporized=""/>
    <tripinfo id="right_14" depart="48.00" departLane="51o_0" departPos="5.10" departSpeed="0.00" departDelay="4.00" arrival="195.00" arrivalLane="52i_0" arrivalPos="10.00" arrivalSpeed="11.32" duration="147.00" routeLength="1015.10" waitingTime="44.00" waitingCount="1" stopTime="0.00" timeLoss="70.23" rerouteNo="0" devices="tripinfo_right_14" vType="car" speedFactor="0.99" vaporized=""/>
    <tripinfo id="left_15" depart="49.00" departLane="52o_0" departPos="5.10" departSpeed="0.00" departDelay="0.00" arrival="197.00" arrivalLane="51i_0" arrivalPos="10.00" arrivalSpeed="10.84" duration="148.00" routeLength="1015.10" waitingTime="44.00" waitingCount="1" stopTime="0.00" timeLoss="68.27" rerouteNo="0" devices="tripinfo_left_15" vType="car" speedFactor="0.93" vaporized=""/>
    <tripinfo id="left_19" depart="67.00" departLane="52o_0" departPos="5.10" departSpeed="0.00" departDelay="0.00" arrival="199.00" arrivalLane="51i_0" arrivalPos="10.00" arrivalSpeed="11.35" duration="132.00" routeLength="1015.10" waitingTime="25.00" waitingCount="1" stopTime="0.00" timeLoss="61.79" rerouteNo="0" devices="tripinfo_left_19" vType="car" speedFactor="1.16" vaporized=""/>
    <tripinfo id="left_21" depart="74.00" departLane="52o_0" departPos="5.10" departSpeed="0.00" departDelay="0.00" arrival="200.00" arrivalLane="51i_0" arrivalPos="10.00" arrivalSpeed="10.92" duration="126.00" routeLength="1015.10" waitingTime="20.00" waitingCount="1" stopTime="0.00" timeLoss="50.52" rerouteNo="0" devices="tripinfo_left_21" vType="car" speedFactor="1.01" vaporized=""/>
    <tripinfo id="right_16" depart="56.00" departLane="51o_0" departPos="5.10" departSpeed="0.00" departDelay="0.00" arrival="202.00" arrivalLane="52i_0" arrivalPos="10.00" arrivalSpeed="10.25" duration="146.00" routeLength="1015.10" waitingTime="37.00" waitingCount="1" stopTime="0.00" timeLoss="63.52" rerouteNo="0" devices="tripinfo_right_16" vType="car" speedFactor="0.88" vaporized=""/>
    <tripinfo id="right_17" depart="63.00" departLane="51o_0" departPos="5.10" departSpeed="0.00" departDelay="0.00" arrival="204.00" arrivalLane="52i_0" arrivalPos="10.00" arrivalSpeed="10.79" duration="141.00" routeLength="1015.10" waitingTime="30.00" waitingCount="1" stopTime="0.00" timeLoss="61.82" rerouteNo="0" devices="tripinfo_right_17" vType="car" speedFactor="0.94" vaporized=""/>
    <tripinfo id="right_18" depart="68.00" departLane="51o_0" departPos="5.10" departSpeed="0.00" departDelay="4.00" arrival="206.00" arrivalLane="52i_0" arrivalPos="10.00" arrivalSpeed="10.67" duration="138.00" routeLength="1015.10" waitingTime="27.00" waitingCount="1" stopTime="0.00" timeLoss="58.25" rerouteNo="0" devices="tripinfo_right_18" vType="car" speedFactor="0.94" vaporized=""/>
    <tripinfo id="right_22" depart="81.00" departLane="51o_0" departPos="5.10" departSpeed="0.00" departDelay="0.00" arrival="207.00" arrivalLane="52i_0" arrivalPos="10.00" arrivalSpeed="10.50" duration="126.00" routeLength="1015.10" waitingTime="17.00" waitingCount="1" stopTime="0.00" timeLoss="49.06" rerouteNo="0" devices="tripinfo_right_22" vType="car" speedFactor="0.98" vaporized=""/>
    <tripinfo id="left_29" depart="117.00" departLane="52o_0" departPos="5.10" departSpeed="0.00" departDelay="0.00" arrival="212.00" arrivalLane="51i_0" arrivalPos="10.00" arrivalSpeed="10.63" duration="95.00" routeLength="1015.10" waitingTime="0.00" waitingCount="0" stopTime="0.00" timeLoss="15.13" rerouteNo="0" devices="tripinfo_left_29" vType="car" speedFactor="0.93" vaporized=""/>
    <tripinfo id="right_24" depart="92.00" departLane="51o_0" departPos="5.10" departSpeed="0.00" departDelay="0.00" arrival="213.00" arrivalLane="52i_0" arrivalPos="10.00" arrivalSpeed="9.57" duration="121.00" routeLength="1015.10" waitingTime="5.00" waitingCount="1" stopTime="0.00" timeLoss="34.27" rerouteNo="0" devices="tripinfo_right_24" vType="car" speedFactor="0.83" vaporized=""/>
    <tripinfo id="left_30" depart="122.00" departLane="52o_0" departPos="5.10" departSpeed="0.00" departDelay="2.00" arrival="213.00" arrivalLane="51i_0" arrivalPos="10.00" arrivalSpeed="10.78" duration="91.00" routeLength="1015.10" waitingTime="0.00" waitingCount="0" stopTime="0.00" timeLoss="21.79" rerouteNo="0" devices="tripinfo_left_30" vType="car" speedFactor="1.18" vaporized=""/>
    <tripinfo id="right_28" depart="115.00" departLane="51o_0" departPos="5.10" departSpeed="0.00" departDelay="0.00" arrival="215.00" arrivalLane="52i_0" arrivalPos="10.00" arrivalSpeed="10.02" duration="100.00" routeLength="1015.10" waitingTime="0.00" waitingCount="0" stopTime="0.00" timeLoss="29.11" rerouteNo="0" devices="tripinfo_right_28" vType="car" speedFactor="1.13" vaporized=""/>
    <tripinfo id="left_31" depart="128.00" departLane="52o_0" departPos="5.10" departSpeed="0.00" departDelay="5.00" arrival="215.00" arrivalLane="51i_0" arrivalPos="10.00" arrivalSpeed="11.54" duration="87.00" routeLength="1015.10" waitingTime="0.00" waitingCount="0" stopTime="0.00" timeLoss="17.11" rerouteNo="0" devices="tripinfo_left_31" vType="car" speedFactor="1.15" vaporized=""/>
    <tripinfo id="right_33" depart="127.00" departLane="51o_0" departPos="5.10" departSpeed="0.00" departDelay="1.00" arrival="217.00" arrivalLane="52i_0" arrivalPos="10.00" arrivalSpeed="11.14" duration="90.00" routeLength="1015.10" waitingTime="0.00" waitingCount="0" stopTime="0.00" timeLoss="20.30" rerouteNo="0" devices="tripinfo_right_33" vType="car" speedFactor="1.17" vaporized=""/>
    <tripinfo id="left_32" depart="133.00" departLane="52o_0" departPos="5.10" departSpeed="0.00" departDelay="8.00" arrival="223.00" arrivalLane="51i_0" arrivalPos="10.00" arrivalSpeed="11.68" duration="90.00" routeLength="1015.10" waitingTime="0.00" waitingCount="0" stopTime="0.00" timeLoss="14.13" rerouteNo="0" devices="tripinfo_left_32" vType="car" speedFactor="1.01" vaporized=""/>
    <tripinfo id="right_34" depart="132.00" departLane="51o_0" departPos="5.10" departSpeed="0.00" departDelay="5.00" arrival="223.00" arrivalLane="52i_0" arrivalPos="10.00" arrivalSpeed="11.44" duration="91.00" routeLength="1015.10" waitingTime="0.00" waitingCount="0" stopTime="0.00" timeLoss="14.79" rerouteNo="0" devices="tripinfo_right_34" vType="car" speedFactor="0.99" vaporized=""/>
    <tripinfo id="down_25" depart="98.00" departLane="53o_0" departPos="5.10" departSpeed="0.00" departDelay="0.00" arrival="244.00" arrivalLane="54i_0" arrivalPos="10.00" arrivalSpeed="9.92" duration="146.00" routeLength="1015.10" waitingTime="39.00" waitingCount="1" stopTime="0.00" timeLoss="63.87" rerouteNo="0" devices="tripinfo_down_25" vType="car" speedFactor="0.87" vaporized=""/>
    <tripinfo id="UP_26" depart="103.00" departLane="54o_0" departPos="5.10" departSpeed="0.00" departDelay="0.00" arrival="244.00" arrivalLane="53i_0" arrivalPos="10.00" arrivalSpeed="10.74" duration="141.00" routeLength="1015.10" waitingTime="34.00" waitingCount="1" stopTime="0.00" timeLoss="60.34" rerouteNo="0" devices="tripinfo_UP_26" vType="car" speedFactor="0.92" vaporized=""/>
    <tripinfo id="UP_27" depart="108.00" departLane="54o_0" departPos="5.10" departSpeed="0.00" departDelay="2.00" arrival="245.00" arrivalLane="53i_0" arrivalPos="10.00" arrivalSpeed="10.29" duration="137.00" routeLength="1015.10" waitingTime="32.00" waitingCount="1" stopTime="0.00" timeLoss="58.77" rerouteNo="0" devices="tripinfo_UP_27" vType="car" speedFactor="0.95" vaporized=""/>
    <tripinfo id="down_36" depart="129.00" departLane="53o_0" departPos="5.10" departSpeed="0.00" departDelay="0.00" arrival="246.00" arrivalLane="54i_0" arrivalPos="10.00" arrivalSpeed="10.62" duration="117.00" routeLength="1015.10" waitingTime="9.00" waitingCount="1" stopTime="0.00" timeLoss="39.89" rerouteNo="0" devices="tripinfo_down_36" vType="car" speedFactor="0.97" vaporized=""/>
    <tripinfo id="down_40" depart="149.00" departLane="53o_0" departPos="5.10" departSpeed="0.00" departDelay="0.00" arrival="248.00" arrivalLane="54i_0" arrivalPos="10.00" arrivalSpeed="11.24" duration="99.00" routeLength="1015.10" waitingTime="0.00" waitingCount="0" stopTime="0.00" timeLoss="24.22" rerouteNo="0" devices="tripinfo_down_40" vType="car" speedFactor="1.03" vaporized=""/>
    <tripinfo id="right_37" depart="137.00" departLane="51o_0" departPos="5.10" departSpeed="0.00" departDelay="5.00" arrival="279.00" arrivalLane="52i_0" arrivalPos="10.00" arrivalSpeed="13.61" duration="142.00" routeLength="1015.10" waitingTime="46.00" waitingCount="1" stopTime="0.00" timeLoss="72.88" rerouteNo="0" devices="tripinfo_right_37" vType="car" speedFactor="1.18" vaporized=""/>
    <tripinfo id="left_35" depart="138.00" departLane="52o_0" departPos="5.10" departSpeed="0.00" departDelay="9.00" arrival="284.00" arrivalLane="51i_0" arrivalPos="10.00" arrivalSpeed="11.50" duration="146.00" routeLength="1015.10" waitingTime="46.00" waitingCount="1" stopTime="0.00" timeLoss="71.01" rerouteNo="0" devices="tripinfo_left_35" vType="car" speedFactor="1.02" vaporized=""/>
    <tripinfo id="left_38" depart="143.00" departLane="52o_0" departPos="5.10" departSpeed="0.00" departDelay="6.00" arrival="286.00" arrivalLane="51i_0" arrivalPos="10.00" arrivalSpeed="12.32" duration="143.00" routeLength="1015.10" waitingTime="43.00" waitingCount="1" stopTime="0.00" timeLoss="70.95" rerouteNo="0" devices="tripinfo_left_38" vType="car" speedFactor="1.10" vaporized=""/>
    <tripinfo id="right_41" depart="150.00" departLane="51o_0" departPos="5.10" departSpeed="0.00" departDelay="0.00" arrival="290.00" arrivalLane="52i_0" arrivalPos="10.00" arrivalSpeed="10.71" duration="140.00" routeLength="1015.10" waitingTime="35.00" waitingCount="1" stopTime="0.00" timeLoss="61.38" rerouteNo="0" devices="tripinfo_right_41" vType="car" speedFactor="0.96" vaporized=""/>
    <tripinfo id="right_42" depart="155.00" departLane="51o_0" departPos="5.10" departSpeed="0.00" departDelay="3.00" arrival="291.00" arrivalLane="52i_0" arrivalPos="10.00" arrivalSpeed="10.70" duration="136.00" routeLength="1015.10" waitingTime="32.00" waitingCount="1" stopTime="0.00" timeLoss="64.02" rerouteNo="0" devices="tripinfo_right_42" vType="car" speedFactor="1.09" vaporized=""/>
    <tripinfo id="right_44" depart="164.00" departLane="51o_0" departPos="5.10" departSpeed="0.00" departDelay="0.00" arrival="293.00" arrivalLane="52i_0" arrivalPos="10.00" arrivalSpeed="11.33" duration="129.00" routeLength="1015.10" waitingTime="22.00" waitingCount="1" stopTime="0.00" timeLoss="54.83" rerouteNo="0" devices="tripinfo_right_44" vType="car" speedFactor="1.04" vaporized=""/>
    <tripinfo id="left_39" depart="148.00" departLane="52o_0" departPos="5.10" departSpeed="0.00" departDelay="1.00" arrival="295.00" arrivalLane="51i_0" arrivalPos="10.00" arrivalSpeed="10.35" duration="147.00" routeLength="1015.10" waitingTime="39.00" waitingCount="1" stopTime="0.00" timeLoss="65.67" rerouteNo="0" devices="tripinfo_left_39" vType="car" speedFactor="0.90" vaporized=""/>
    <tripinfo id="right_45" depart="171.00" departLane="51o_0" departPos="5.10" departSpeed="0.00" departDelay="0.00" arrival="295.00" arrivalLane="52i_0" arrivalPos="10.00" arrivalSpeed="12.31" duration="124.00" routeLength="1015.10" waitingTime="19.00" waitingCount="1" stopTime="0.00" timeLoss="51.33" rerouteNo="0" devices="tripinfo_right_45" vType="car" speedFactor="1.09" vaporized=""/>
    <tripinfo id="left_43" depart="159.00" departLane="52o_0" departPos="5.10" departSpeed="0.00" departDelay="0.00" arrival="297.00" arrivalLane="51i_0" arrivalPos="10.00" arrivalSpeed="11.18" duration="138.00" routeLength="1015.10" waitingTime="28.00" waitingCount="1" stopTime="0.00" timeLoss="63.21" rerouteNo="0" devices="tripinfo_left_43" vType="car" speedFactor="1.04" vaporized=""/>
    <tripinfo id="right_46" depart="179.00" departLane="51o_0" departPos="5.10" departSpeed="0.00" departDelay="0.00" arrival="297.00" arrivalLane="52i_0" arrivalPos="10.00" arrivalSpeed="11.51" duration="118.00" routeLength="1015.10" waitingTime="11.00" waitingCount="1" stopTime="0.00" timeLoss="41.75" rerouteNo="0" devices="tripinfo_right_46" vType="car" speedFactor="1.00" vaporized=""/>
    <tripinfo id="left_49" depart="184.00" departLane="52o_0" departPos="5.10" departSpeed="0.00" departDelay="0.00" arrival="302.00" arrivalLane="51i_0" arrivalPos="10.00" arrivalSpeed="9.76" duration="118.00" routeLength="1015.10" waitingTime="6.00" waitingCount="1" stopTime="0.00" timeLoss="33.34" rerouteNo="0" devices="tripinfo_left_49" vType="car" speedFactor="0.85" vaporized=""/>
    <tripinfo id="right_47" depart="184.00" departLane="51o_0" departPos="5.10" departSpeed="0.00" departDelay="4.00" arrival="303.00" arrivalLane="52i_0" arrivalPos="10.00" arrivalSpeed="10.76" duration="119.00" routeLength="1015.10" waitingTime="9.00" waitingCount="1" stopTime="0.00" timeLoss="38.13" rerouteNo="0" devices="tripinfo_right_47" vType="car" speedFactor="0.90" vaporized=""/>
    <tripinfo id="right_48" depart="189.00" departLane="51o_0" departPos="5.10" departSpeed="0.00" departDelay="7.00" arrival="307.00" arrivalLane="52i_0" arrivalPos="10.00" arrivalSpeed="10.15" duration="118.00" routeLength="1015.10" waitingTime="3.00" waitingCount="1" stopTime="0.00" timeLoss="35.23" rerouteNo="0" devices="tripinfo_right_48" vType="car" speedFactor="0.88" vaporized=""/>
    <tripinfo id="left_50" depart="207.00" departLane="52o_0" departPos="5.10" departSpeed="0.00" departDelay="3.00" arrival="307.00" arrivalLane="51i_0" arrivalPos="10.00" arrivalSpeed="9.81" duration="100.00" routeLength="1015.10" waitingTime="0.00" waitingCount="0" stopTime="0.00" timeLoss="16.31" rerouteNo="0" devices="tripinfo_left_50" vType="car" speedFactor="0.85" vaporized=""/>
    <tripinfo id="right_51" depart="213.00" departLane="51o_0" departPos="5.10" departSpeed="0.00" departDelay="0.00" arrival="309.00" arrivalLane="52i_0" arrivalPos="10.00" arrivalSpeed="10.58" duration="96.00" routeLength="1015.10" waitingTime="0.00" waitingCount="0" stopTime="0.00" timeLoss="26.02" rerouteNo="0" devices="tripinfo_right_51" vType="car" speedFactor="1.17" vaporized=""/>
    <tripinfo id="left_53" depart="218.00" departLane="52o_0" departPos="5.10" departSpeed="0.00" departDelay="0.00" arrival="309.00" arrivalLane="51i_0" arrivalPos="10.00" arrivalSpeed="10.56" duration="91.00" routeLength="1015.10" waitingTime="0.00" waitingCount="0" stopTime="0.00" timeLoss="18.93" rerouteNo="0" devices="tripinfo_left_53" vType="car" speedFactor="1.10" vaporized=""/>
    <tripinfo id="right_52" depart="218.00" departLane="51o_0" departPos="5.10" departSpeed="0.00" departDelay="2.00" arrival="310.00" arrivalLane="52i_0" arrivalPos="10.00" arrivalSpeed="10.52" duration="92.00" routeLength="1015.10" waitingTime="0.00" waitingCount="0" stopTime="0.00" timeLoss="16.89" rerouteNo="0" devices="tripinfo_right_52" vType="car" speedFactor="1.02" vaporized=""/>
    <tripinfo id="right_55" depart="227.00" departLane="51o_0" departPos="5.10" departSpeed="0.00" departDelay="0.00" arrival="318.00" arrivalLane="52i_0" arrivalPos="10.00" arrivalSpeed="11.32" duration="91.00" routeLength="1015.10" waitingTime="0.00" waitingCount="0" stopTime="0.00" timeLoss="14.70" rerouteNo="0" devices="tripinfo_right_55" vType="car" speedFactor="1.00" vaporized=""/>
    <tripinfo id="down_54" depart="220.00" departLane="53o_0" departPos="5.10" departSpeed="0.00" departDelay="0.00" arrival="332.00" arrivalLane="54i_0" arrivalPos="10.00" arrivalSpeed="11.39" duration="112.00" routeLength="1015.10" waitingTime="9.00" waitingCount="1" stopTime="0.00" timeLoss="35.59" rerouteNo="0" devices="tripinfo_down_54" vType="car" speedFactor="1.00" vaporized=""/>
    <tripinfo id="down_61" depart="256.00" departLane="53o_0" departPos="5.10" departSpeed="0.00" departDelay="0.00" arrival="343.00" arrivalLane="54i_0" arrivalPos="10.00" arrivalSpeed="12.65" duration="87.00" routeLength="1015.10" waitingTime="0.00" waitingCount="0" stopTime="0.00" timeLoss="15.26" rerouteNo="0" devices="tripinfo_down_61" vType="car" speedFactor="1.12" vaporized=""/>
    <tripinfo id="down_63" depart="261.00" departLane="53o_0" departPos="5.10" departSpeed="0.00" departDelay="3.00" arrival="352.00" arrivalLane="54i_0" arrivalPos="10.00" arrivalSpeed="10.71" duration="91.00" routeLength="1015.10" waitingTime="0.00" waitingCount="0" stopTime="0.00" timeLoss="14.45" rerouteNo="0" devices="tripinfo_down_63" vType="car" speedFactor="0.99" vaporized=""/>
    <tripinfo id="right_57" depart="239.00" departLane="51o_0" departPos="5.10" departSpeed="0.00" departDelay="0.00" arrival="373.00" arrivalLane="52i_0" arrivalPos="10.00" arrivalSpeed="12.93" duration="134.00" routeLength="1015.10" waitingTime="36.00" waitingCount="1" stopTime="0.00" timeLoss="63.09" rerouteNo="0" devices="tripinfo_right_57" vType="car" speedFactor="1.14" vaporized=""/>
    <tripinfo id="right_58" depart="245.00" departLane="51o_0" departPos="5.10" departSpeed="0.00" departDelay="0.00" arrival="380.00" arrivalLane="52i_0" arrivalPos="10.00" arrivalSpeed="11.98" duration="135.00" routeLength="1015.10" waitingTime="31.00" waitingCount="1" stopTime="0.00" timeLoss="59.92" rerouteNo="0" devices="tripinfo_right_58" vType="car" speedFactor="1.02" vaporized=""/>
    <tripinfo id="left_56" depart="232.00" departLane="52o_0" departPos="5.10" departSpeed="0.00" departDelay="0.00" arrival="382.00" arrivalLane="51i_0" arrivalPos="10.00" arrivalSpeed="10.10" duration="150.00" routeLength="1015.10" waitingTime="42.00" waitingCount="1" stopTime="0.00" timeLoss="69.06" rerouteNo="0" devices="tripinfo_left_56" vType="car" speedFactor="0.90" vaporized=""/>
    <tripinfo id="right_59" depart="250.00" departLane="51o_0" departPos="5.10" departSpeed="0.00" departDelay="0.00" arrival="384.00" arrivalLane="52i_0" arrivalPos="10.00" arrivalSpeed="11.08" duration="134.00" routeLength="1015.10" waitingTime="28.00" waitingCount="1" stopTime="0.00" timeLoss="56.41" rerouteNo="0" devices="tripinfo_right_59" vType="car" speedFactor="0.97" vaporized=""/>
    <tripinfo id="left_60" depart="253.00" departLane="52o_0" departPos="5.10" departSpeed="0.00" departDelay="0.00" arrival="384.00" arrivalLane="51i_0" arrivalPos="10.00" arrivalSpeed="10.83" duration="131.00" routeLength="1015.10" waitingTime="23.00" waitingCount="1" stopTime="0.00" timeLoss="58.35" rerouteNo="0" devices="tripinfo_left_60" vType="car" speedFactor="1.08" vaporized=""/>
    <tripinfo id="left_62" depart="258.00" departLane="52o_0" departPos="5.10" departSpeed="0.00" departDelay="0.00" arrival="386.00" arrivalLane="51i_0" arrivalPos="10.00" arrivalSpeed="11.66" duration="128.00" routeLength="1015.10" waitingTime="20.00" waitingCount="1" stopTime="0.00" timeLoss="52.26" rerouteNo="0" devices="tripinfo_left_62" vType="car" speedFactor="1.02" vaporized=""/>
    <tripinfo id="left_64" depart="263.00" departLane="52o_0" departPos="5.10" departSpeed="0.00" departDelay="1.00" arrival="388.00" arrivalLane="51i_0" arrivalPos="10.00" arrivalSpeed="10.77" duration="125.00" routeLength="1015.10" waitingTime="17.00" waitingCount="1" stopTime="0.00" timeLoss="45.41" rerouteNo="0" devices="tripinfo_left_64" vType="car" speedFactor="0.94" vaporized=""/>
    <tripinfo id="right_66" depart="266.00" departLane="51o_0" departPos="5.10" departSpeed="0.00" departDelay="0.00" arrival="389.00" arrivalLane="52i_0" arrivalPos="10.00" arrivalSpeed="10.35" duration="123.00" routeLength="1015.10" waitingTime="13.00" waitingCount="1" stopTime="0.00" timeLoss="42.04" rerouteNo="0" devices="tripinfo_right_66" vType="car" speedFactor="0.91" vaporized=""/>
    <tripinfo id="right_72" depart="287.00" departLane="51o_0" departPos="5.10" departSpeed="0.00" departDelay="0.00" arrival="391.00" arrivalLane="52i_0" arrivalPos="10.00" arrivalSpeed="10.56" duration="104.00" routeLength="1015.10" waitingTime="0.00" waitingCount="0" stopTime="0.00" timeLoss="24.66" rerouteNo="0" devices="tripinfo_right_72" vType="car" speedFactor="0.94" vaporized=""/>
    <tripinfo id="left_65" depart="268.00" departLane="52o_0" departPos="5.10" departSpeed="0.00" departDelay="3.00" arrival="392.00" arrivalLane="51i_0" arrivalPos="10.00" arrivalSpeed="10.49" duration="124.00" routeLength="1015.10" waitingTime="13.00" waitingCount="1" stopTime="0.00" timeLoss="41.46" rerouteNo="0" devices="tripinfo_left_65" vType="car" speedFactor="0.88" vaporized=""/>
    <tripinfo id="right_75" depart="292.00" departLane="51o_0" departPos="5.10" departSpeed="0.00" departDelay="0.00" arrival="392.00" arrivalLane="52i_0" arrivalPos="10.00" arrivalSpeed="10.75" duration="100.00" routeLength="1015.10" waitingTime="0.00" waitingCount="0" stopTime="0.00" timeLoss="23.52" rerouteNo="0" devices="tripinfo_right_75" vType="car" speedFactor="0.98" vaporized=""/>
    <tripinfo id="left_67" depart="273.00" departLane="52o_0" departPos="5.10" departSpeed="0.00" departDelay="5.00" arrival="393.00" arrivalLane="51i_0" arrivalPos="10.00" arrivalSpeed="10.34" duration="120.00" routeLength="1015.10" waitingTime="6.00" waitingCount="1" stopTime="0.00" timeLoss="40.04" rerouteNo="0" devices="tripinfo_left_67" vType="car" speedFactor="0.91" vaporized=""/>
    <tripinfo id="right_77" depart="297.00" departLane="51o_0" departPos="5.10" departSpeed="0.00" departDelay="1.00" arrival="394.00" arrivalLane="52i_0" arrivalPos="10.00" arrivalSpeed="11.14" duration="97.00" routeLength="1015.10" waitingTime="0.00" waitingCount="0" stopTime="0.00" timeLoss="20.08" rerouteNo="0" devices="tripinfo_right_77" vType="car" speedFactor="0.98" vaporized=""/>
    <tripinfo id="left_68" depart="279.00" departLane="52o_0" departPos="5.10" departSpeed="0.00" departDelay="8.00" arrival="395.00" arrivalLane="51i_0" arrivalPos="10.00" arrivalSpeed="11.38" duration="116.00" routeLength="1015.10" waitingTime="4.00" waitingCount="1" stopTime="0.00" timeLoss="41.70" rerouteNo="0" devices="tripinfo_left_68" vType="car" speedFactor="1.04" vaporized=""/>
    <tripinfo id="left_69" depart="284.00" departLane="52o_0" departPos="5.10" departSpeed="0.00" departDelay="11.00" arrival="397.00" arrivalLane="51i_0" arrivalPos="10.00" arrivalSpeed="11.46" duration="113.00" routeLength="1015.10" waitingTime="0.00" waitingCount="0" stopTime="0.00" timeLoss="37.69" rerouteNo="0" devices="tripinfo_left_69" vType="car" speedFactor="1.02" vaporized=""/>
    <tripinfo id="right_80" depart="309.00" departLane="51o_0" departPos="5.10" departSpeed="0.00" departDelay="0.00" arrival="398.00" arrivalLane="52i_0" arrivalPos="10.00" arrivalSpeed="11.97" duration="89.00" routeLength="1015.10" waitingTime="0.00" waitingCount="0" stopTime="0.00" timeLoss="14.64" rerouteNo="0" devices="tripinfo_right_80" vType="car" speedFactor="1.03" vaporized=""/>